
 Primary working directories    : /tmp/cmelton
 Secondary working directories  : /tmp/cmelton
 Wavefunction directory         : /remote/cmelton/wfu/
 Main file repository           : /tmp/cmelton/

 SHA1      : 4c1979699e6aeda0524d0210415ba82a958648b0
 NAME      : 2012.1.39
 ARCHNAME  : Linux/x86_64
 FC        : /projects/sems/install/rhel6-x86_64/sems/compiler/intel/16.0.1/base/bin/ifort
 FCVERSION : 16.0.1
 BLASLIB   : -L/projects/sems/install/rhel6-x86_64/sems/compiler/intel/16.0.1/base/compilers_and_libraries_2016.1.150/linux/mkl/lib/intel64 -lmkl_intel_ilp64 -lmkl_sequential -lmkl_core
 id        : sandiacon

 Nodes             nprocs
 s989256.sandia.gov    1

 Using customized tuning parameters: mindgm=7; mindgv=16; mindgc=1; mindgr=1; noblas=0; minvec=7
 default implementation of scratch files=df  

 ***,Calculation for Be atom, singlet and triplet
 memory,512,m
 gthresh,twoint=1.0E-12
 geometry={
 1
 Na
 Na  0.0 0.0 0.0
 }
 
 basis={
 ecp,Na,10,2,0
 3;
  1  ,  4.31167777 ,   1.00000000
  3  ,  1.92568851 ,   4.31167777
  2  ,  1.54949836 ,  -2.08313670
 2;
  2  ,  5.37766645 ,   6.23406351
  2  ,  1.40841434 ,   9.07593069
 2;
  2  ,  1.37994865 ,   3.23272398
  2  ,  0.86245288 ,   2.49407937
 Including file /remote/cmelton/data/corrECP/2nd_row/aug-cc-pV5Z.basis
 }
 
 Including file /remote/cmelton/data/corrECP/2nd_row/Na/Ne-core/states.proc
 
 do i=1,2
 if (i.eq.1) then
     GS
 else if (i.eq.2) then
     EA
 endif
 scf(i)=energy
 _CC_NORM_MAX=2.0
 {uccsd(t),maxit=400;core}
 ccsd(i)=energy
 enddo
 
 table,scf,ccsd
 save
 type,csv

 Variables initialized (782), CPU time= 0.01 sec
 Commands  initialized (547), CPU time= 0.01 sec, 517 directives.
 Default parameters read. Elapsed time= 0.21 sec

 Checking input...
 Passed
1


                                         ***  PROGRAM SYSTEM MOLPRO  ***
                         Copyright, University College Cardiff Consultants Limited, 2008

                                    Version 2012.1 linked Aug  2 2016 14:07:26


 **********************************************************************************************************************************
 LABEL *   Calculation for Be atom, singlet and triplet                                  
 Linux-3.10.0-693.21.1.el7.x86_64/s989256.sandia.gov(x86_64) 64 bit serial version       DATE: 26-Apr-18          TIME: 14:36:47  
 **********************************************************************************************************************************

 SHA1:             4c1979699e6aeda0524d0210415ba82a958648b0
 **********************************************************************************************************************************

 THRESHOLDS:

 ZERO    =  1.00D-12  ONEINT  =  1.00D-12  TWOINT  =  1.00D-12  PREFAC  =  1.00D-14  LOCALI  =  1.00D-09  EORDER  =  1.00D-04
 ENERGY  =  0.00D+00  ETEST   =  0.00D+00  EDENS   =  0.00D+00  THRDEDEF=  1.00D-06  GRADIENT=  1.00D-02  STEP    =  1.00D-03
 ORBITAL =  1.00D-05  CIVEC   =  1.00D-05  COEFF   =  1.00D-04  PRINTCI =  5.00D-02  PUNCHCI =  9.90D+01  OPTGRAD =  3.00D-04
 OPTENERG=  1.00D-06  OPTSTEP =  3.00D-04  THRGRAD =  1.00D-10  COMPRESS=  1.00D-11  VARMIN  =  1.00D-07  VARMAX  =  1.00D-03
 THRDOUB =  0.00D+00  THRDIV  =  1.00D-05  THRRED  =  1.00D-07  THRPSP  =  1.00D+00  THRDC   =  1.00D-10  THRCS   =  1.00D-10
 THRNRM  =  1.00D-08  THREQ   =  0.00D+00  THRDE   =  1.00D+00  THRREF  =  1.00D-05  SPARFAC =  1.00D+00  THRDLP  =  1.00D-07
 THRDIA  =  1.00D-10  THRDLS  =  1.00D-07  THRGPS  =  0.00D+00  THRKEX  =  0.00D+00  THRDIS  =  2.00D-01  THRVAR  =  1.00D-10
 THRLOC  =  1.00D-06  THRGAP  =  1.00D-06  THRLOCT = -1.00D+00  THRGAPT = -1.00D+00  THRORB  =  1.00D-06  THRMLTP =  0.00D+00
 THRCPQCI=  1.00D-10  KEXTA   =  0.00D+00  THRCOARS=  0.00D+00  SYMTOL  =  1.00D-06  GRADTOL =  1.00D-06  THROVL  =  1.00D-08
 THRORTH =  1.00D-08  GRID    =  1.00D-06  GRIDMAX =  1.00D-03  DTMAX   =  0.00D+00  THROCCDE=  1.00D-01  THROCCDE=  1.00D-01



Geometry recognized as XYZ


 Variable memory set to  512000000 words,  buffer space   230000 words

 SETTING BASIS          =    USERDEF

 DO I                   =         1.00000000   

 Running procedure=GS


 Recomputing integrals since basis changed


 Using spherical harmonics


1PROGRAM * SEWARD (Integral evaluation for generally contracted gaussian basis sets)     Author: Roland Lindh, 1990

 Geometry written to block  1 of record 700

 Orientation using atomic masses  
 Molecule type: Atom
 Symmetry elements: X,Y,Z
 Rotational constants:       0.0000000      0.0000000      0.0000000 GHz  (calculated with average atomic masses)

 Point group  D2h 



 ATOMIC COORDINATES

 NR  ATOM    CHARGE       X              Y              Z

   1  NA      1.00    0.000000000    0.000000000    0.000000000

 NUCLEAR CHARGE:                    1
 NUMBER OF PRIMITIVE AOS:         216
 NUMBER OF SYMMETRY AOS:          161
 NUMBER OF CONTRACTIONS:          161   (  39Ag  +  27B3u +  27B2u +  11B1g +  27B1u +  11B2g +  11B3g +   8Au  )
 NUMBER OF CORE ORBITALS:           0   (   0Ag  +   0B3u +   0B2u +   0B1g +   0B1u +   0B2g +   0B3g +   0Au  )
 NUMBER OF VALENCE ORBITALS:        4   (   1Ag  +   1B3u +   1B2u +   0B1g +   1B1u +   0B2g +   0B3g +   0Au  )


 NUCLEAR REPULSION ENERGY    0.00000000

 EXTRA SYMMETRY OF AOS IN SYMMETRY 1:   1 1 1 1 1 1 1 1 1 1   1 1 1 1 1 1 1 1 1 1   2 3 2 3 2 3 2 3 2 3   4 5 6 4 5 6 4 5 6
 EXTRA SYMMETRY OF AOS IN SYMMETRY 2:   1 1 1 1 1 1 1 1 1 1   1 1 1 2 3 2 3 2 3 2   3 4 5 6 4 5 6
 EXTRA SYMMETRY OF AOS IN SYMMETRY 3:   1 1 1 1 1 1 1 1 1 1   1 1 1 2 3 2 3 2 3 2   3 4 5 6 4 5 6
 EXTRA SYMMETRY OF AOS IN SYMMETRY 4:   1 1 1 1 1 2 3 2 3 2   3
 EXTRA SYMMETRY OF AOS IN SYMMETRY 5:   1 1 1 1 1 1 1 1 1 1   1 1 1 2 3 2 3 2 3 2   3 4 5 6 4 5 6
 EXTRA SYMMETRY OF AOS IN SYMMETRY 6:   1 1 1 1 1 2 3 2 3 2   3
 EXTRA SYMMETRY OF AOS IN SYMMETRY 7:   1 1 1 1 1 2 3 2 3 2   3
 EXTRA SYMMETRY OF AOS IN SYMMETRY 8:   1 1 1 1 2 3 2 3

 Eigenvalues of metric

         1 0.667E-03 0.203E-02 0.472E-02 0.529E-02 0.529E-02 0.687E-02 0.130E-01 0.260E-01
         2 0.152E-02 0.162E-01 0.264E-01 0.466E-01 0.466E-01 0.656E-01 0.138E+00 0.219E+00
         3 0.152E-02 0.162E-01 0.264E-01 0.466E-01 0.466E-01 0.656E-01 0.138E+00 0.219E+00
         4 0.529E-02 0.582E-01 0.226E+00 0.226E+00 0.341E+00 0.850E+00 0.850E+00 0.125E+01
         5 0.152E-02 0.162E-01 0.264E-01 0.466E-01 0.466E-01 0.656E-01 0.138E+00 0.219E+00
         6 0.529E-02 0.582E-01 0.226E+00 0.226E+00 0.341E+00 0.850E+00 0.850E+00 0.125E+01
         7 0.529E-02 0.582E-01 0.226E+00 0.226E+00 0.341E+00 0.850E+00 0.850E+00 0.125E+01
         8 0.466E-01 0.284E+00 0.284E+00 0.359E+00 0.105E+01 0.172E+01 0.172E+01 0.254E+01


 Contracted 2-electron integrals neglected if value below      1.0D-12
 AO integral compression algorithm  1   Integral accuracy      1.0D-12

     51.118 MB (compressed) written to integral file ( 39.1%)


 NUMBER OF SORTED TWO-ELECTRON INTEGRALS:   11176383.     BUFFER LENGTH:  32768
 NUMBER OF SEGMENTS:   1  SEGMENT LENGTH:   11176383      RECORD LENGTH: 524288

 Memory used in sort:      11.73 MW

 SORT1 READ    16410295. AND WROTE     5953342. INTEGRALS IN     18 RECORDS. CPU TIME:     0.33 SEC, REAL TIME:     0.39 SEC
 SORT2 READ     5953342. AND WROTE    11176383. INTEGRALS IN    195 RECORDS. CPU TIME:     0.23 SEC, REAL TIME:     0.28 SEC

 FILE SIZES:   FILE 1:    59.3 MBYTE,  FILE 4:    75.5 MBYTE,   TOTAL:    134.8 MBYTE

 OPERATOR DM      FOR CENTER  0  COORDINATES:    0.000000    0.000000    0.000000


 **********************************************************************************************************************************
 DATASETS  * FILE   NREC   LENGTH (MB)   RECORD NAMES
              1      20       37.87       500      610      700      900      950      970     1000      129      960     1100   
                                          VAR    BASINP    GEOM    SYMINP    ZMAT    AOBASIS   BASIS     P2S    ABASIS      S 
                                         1400     1410     1420     1200     1210     1080     1600     1650     1300     1700   
                                           T        V       ECP      H0       H01     AOSYM     SMH    MOLCAS    ERIS     OPER   

 PROGRAMS   *        TOTAL       INT
 CPU TIMES  *         3.54      3.40
 REAL TIME  *         4.41 SEC
 DISK USED  *       135.65 MB      
 **********************************************************************************************************************************

1PROGRAM * RHF-SCF (OPEN SHELL)       Authors: W. Meyer, H.-J. Werner


 NUMBER OF ELECTRONS:       1+    0-    SPACE SYMMETRY=1    SPIN SYMMETRY: Doublet 
 CONVERGENCE THRESHOLDS:    1.00E-05 (Density)    1.00E-07 (Energy)
 MAX. NUMBER OF ITERATIONS:       60
 INTERPOLATION TYPE:            DIIS
 INTERPOLATION STEPS:              2 (START)      1 (STEP)
 LEVEL SHIFTS:                 -0.30 (CLOSED)  0.00 (OPEN) 


 Singly occupied orbitals:      1.1
 Orbital guess generated from atomic densities. Full valence occupancy:    1   0   0   0   0   0   0   0


 Molecular orbital dump at record        2100.2

 ITERATION    DDIFF          GRAD             ENERGY        2-EL.EN.            DIPOLE MOMENTS         DIIS   ORB.
    1      0.000D+00      0.000D+00        -0.18396019      0.000000    0.00000    0.00000    0.00000    0    start
    2      0.000D+00      0.142D-02        -0.18563087      0.000000    0.00000    0.00000    0.00000    1    diag,B
    3      0.205D-02      0.719D-03        -0.18620165      0.000000    0.00000    0.00000    0.00000    2    diag,B
    4      0.226D-02      0.144D-04        -0.18620177     -0.000000    0.00000    0.00000    0.00000    3    diag,B
    5      0.527D-04      0.145D-05        -0.18620177     -0.000000    0.00000    0.00000    0.00000    4    diag,B
    6      0.590D-05      0.191D-06        -0.18620177      0.000000    0.00000    0.00000    0.00000    0    orth

 Final alpha occupancy:   1   0   0   0   0   0   0   0
 Final beta  occupancy:   0   0   0   0   0   0   0   0

 !RHF STATE 1.1 Energy                 -0.186201773676
 Nuclear energy                         0.00000000
 One-electron energy                   -0.18620177
 Two-electron energy                    0.00000000
 Virial quotient                       -2.48413737
 !RHF STATE 1.1 Dipole moment           0.00000000     0.00000000     0.00000000
 Dipole moment /Debye                   0.00000000     0.00000000     0.00000000

 Orbital energies:

         1.1          2.1          3.1
     -0.186202     0.010607     0.062318

         1.2          2.2
      0.009308     0.028132

         1.3          2.3
      0.009308     0.028132

         1.4          2.4
      0.062318     0.174126

         1.5          2.5
      0.009308     0.028132

         1.6          2.6
      0.062318     0.174126

         1.7          2.7
      0.062318     0.174126

         1.8          2.8
      0.164078     0.465486

 HOMO      1.1    -0.186202 =      -5.0668eV
 LUMO      1.2     0.009308 =       0.2533eV
 LUMO-HOMO         0.195510 =       5.3201eV


 **********************************************************************************************************************************
 DATASETS  * FILE   NREC   LENGTH (MB)   RECORD NAMES
              1      20       37.87       500      610      700      900      950      970     1000      129      960     1100   
                                          VAR    BASINP    GEOM    SYMINP    ZMAT    AOBASIS   BASIS     P2S    ABASIS      S 
                                         1400     1410     1420     1200     1210     1080     1600     1650     1300     1700   
                                           T        V       ECP      H0       H01     AOSYM     SMH    MOLCAS    ERIS     OPER   

              2       5        3.40       200      700     1000      520     2100   
                                        OPTIONS   GEOM     BASIS   MCVARS     RHF  

 PROGRAMS   *        TOTAL       RHF       INT
 CPU TIMES  *         3.80      0.25      3.40
 REAL TIME  *         4.75 SEC
 DISK USED  *       135.65 MB      
 **********************************************************************************************************************************
 SETTING SCF(1)         =        -0.18620177  AU                              
 SETTING _CC_NORM_MAX   =         2.00000000                                  


1PROGRAM * CCSD (Unrestricted open-shell coupled cluster)     Authors: C. Hampel, H.-J. Werner, 1991, M. Deegan, P.J. Knowles, 1992


 Convergence thresholds:  THRVAR = 1.00D-08  THRDEN = 1.00D-06

 CCSD(T)     terms to be evaluated (factor= 1.000)


 Number of active  orbitals:        1 (   1   0   0   0   0   0   0   0 )
 Number of external orbitals:     160 (  38  27  27  11  27  11  11   8 )

 Memory could be reduced to 4.22 Mwords without degradation in triples

 Number of N-1 electron functions:               1
 Number of N-2 electron functions:               0
 Number of singly external CSFs:                39
 Number of doubly external CSFs:                 0
 Total number of CSFs:                          39

 Molecular orbitals read from record     2100.2  Type=RHF/CANONICAL (state 1.1)

 Integral transformation finished. Total CPU:   0.10 sec, npass=  1  Memory used:   0.37 MW

 Starting RMP2 calculation

 ITER.      SQ.NORM     CORR.ENERGY   TOTAL ENERGY   ENERGY CHANGE        DEN1      VAR(S)    VAR(P)  DIIS     TIME
   1      1.00000000    -0.00000000    -0.18620177    -0.00000000    -0.00000000  0.74D-12  0.00D+00  1  1     0.11

 Norm of t1 vector:      0.00000289      S-energy:    -0.00000000      T1 diagnostic:  0.00000205
 Norm of t2 vector:      0.00000000      P-energy:     0.00000000
                                         Alpha-Beta:   0.00000000
                                         Alpha-Alpha:  0.00000000
                                         Beta-Beta:    0.00000000

 Spin contamination <S**2-Sz**2-Sz>     0.00000000
  Reference energy                     -0.186201773676
  RHF-RMP2 correlation energy          -0.000000000002
 !RHF-RMP2 energy                      -0.186201773679

 Starting UCCSD calculation

 ITER.      SQ.NORM     CORR.ENERGY   TOTAL ENERGY   ENERGY CHANGE        DEN1      VAR(S)    VAR(P)  DIIS     TIME
   1      1.00000000    -0.00000000    -0.18620177    -0.00000000    -0.00000000  0.16D-11  0.00D+00  1  1     0.11

 Norm of t1 vector:      0.00000330      S-energy:    -0.00000000      T1 diagnostic:  0.00000234
                                                                       D1 diagnostic:  0.00000234
 Norm of t2 vector:      0.00000000      P-energy:     0.00000000
                                         Alpha-Beta:   0.00000000
                                         Alpha-Alpha:  0.00000000
                                         Beta-Beta:    0.00000000

 Spin contamination <S**2-Sz**2-Sz>     0.00000000

 Memory could be reduced to 4.27 Mwords without degradation in triples
 

 RESULTS
 =======

  Reference energy                     -0.186201773676
  UCCSD singles energy                 -0.000000000002
  UCCSD pair energy                     0.000000000000
  UCCSD correlation energy             -0.000000000002
  Triples (T) contribution              0.000000000000
  Total correlation energy             -0.000000000002
 
  RHF-UCCSD energy                     -0.186201773679
  RHF-UCCSD[T] energy                  -0.186201773679
  RHF-UCCSD-T energy                   -0.186201773679
 !RHF-UCCSD(T) energy                  -0.186201773679

 Program statistics:

 Available memory in ccsd:               511999882
 Min. memory needed in ccsd:                108999
 Max. memory used in ccsd:                  108999
 Max. memory used in cckext:                146835 ( 1 integral passes)
 Max. memory used in cckint:                367813 ( 1 integral passes)



 **********************************************************************************************************************************
 DATASETS  * FILE   NREC   LENGTH (MB)   RECORD NAMES
              1      20       37.87       500      610      700      900      950      970     1000      129      960     1100   
                                          VAR    BASINP    GEOM    SYMINP    ZMAT    AOBASIS   BASIS     P2S    ABASIS      S 
                                         1400     1410     1420     1200     1210     1080     1600     1650     1300     1700   
                                           T        V       ECP      H0       H01     AOSYM     SMH    MOLCAS    ERIS     OPER   

              2       5        3.40       200      700     1000      520     2100   
                                        OPTIONS   GEOM     BASIS   MCVARS     RHF  

 PROGRAMS   *        TOTAL  UCCSD(T)       RHF       INT
 CPU TIMES  *         3.99      0.19      0.25      3.40
 REAL TIME  *         5.09 SEC
 DISK USED  *       135.65 MB      
 **********************************************************************************************************************************
 SETTING CCSD(1)        =        -0.18620177  AU                              

 DO I                   =         2.00000000   

 Running procedure=EA

1PROGRAM * RHF-SCF (CLOSED SHELL)       Authors: W. Meyer, H.-J. Werner


 NUMBER OF ELECTRONS:       1+    1-    SPACE SYMMETRY=1    SPIN SYMMETRY: Singlet 
 CONVERGENCE THRESHOLDS:    1.00E-05 (Density)    1.00E-07 (Energy)
 MAX. NUMBER OF ITERATIONS:       60
 INTERPOLATION TYPE:            DIIS
 INTERPOLATION STEPS:              2 (START)      1 (STEP)
 LEVEL SHIFTS:                  0.00 (CLOSED)  0.00 (OPEN) 

 Number of closed-shell orbitals:    1 (   1   0   0   0   0   0   0   0 )


 Orbital guess generated from atomic densities. Full valence occupancy:    1   0   0   0   0   0   0   0


 Molecular orbital dump at record        2101.2

 ITERATION    DDIFF          GRAD             ENERGY        2-EL.EN.            DIPOLE MOMENTS         DIIS   ORB.
    1      0.000D+00      0.000D+00        -0.16993946      0.395962    0.00000    0.00000    0.00000    0    start
    2      0.000D+00      0.421D-02        -0.18001446      0.347981    0.00000    0.00000    0.00000    1    diag
    3      0.848D-02      0.157D-02        -0.18211607      0.318730    0.00000    0.00000    0.00000    2    diag
    4      0.470D-02      0.379D-03        -0.18228598      0.312826    0.00000    0.00000    0.00000    3    diag
    5      0.254D-02      0.112D-03        -0.18230739      0.310117    0.00000    0.00000    0.00000    4    diag
    6      0.161D-02      0.270D-04        -0.18230813      0.310043    0.00000    0.00000    0.00000    5    diag
    7      0.554D-03      0.297D-05        -0.18230815      0.309951    0.00000    0.00000    0.00000    6    diag
    8      0.450D-04      0.200D-06        -0.18230815      0.309957    0.00000    0.00000    0.00000    7    diag
    9      0.270D-05      0.101D-07        -0.18230815      0.309957    0.00000    0.00000    0.00000    0    orth

 Final occupancy:   1   0   0   0   0   0   0   0

 !RHF STATE 1.1 Energy                 -0.182308146670
 Nuclear energy                         0.00000000
 One-electron energy                   -0.33728668
 Two-electron energy                    0.15497854
 Virial quotient                       -2.47186983
 !RHF STATE 1.1 Dipole moment           0.00000000     0.00000000     0.00000000
 Dipole moment /Debye                   0.00000000     0.00000000     0.00000000

 Orbital energies:

         1.1          2.1          3.1
     -0.013665     0.077965     0.156432

         1.2          2.2
      0.069055     0.121999

         1.3          2.3
      0.069055     0.121999

         1.4          2.4
      0.156432     0.295369

         1.5          2.5
      0.069055     0.121999

         1.6          2.6
      0.156432     0.295369

         1.7          2.7
      0.156432     0.295369

         1.8          2.8
      0.276741     0.603351

 HOMO      1.1    -0.013665 =      -0.3718eV
 LUMO      1.2     0.069055 =       1.8791eV
 LUMO-HOMO         0.082720 =       2.2509eV


 **********************************************************************************************************************************
 DATASETS  * FILE   NREC   LENGTH (MB)   RECORD NAMES
              1      20       37.87       500      610      700      900      950      970     1000      129      960     1100   
                                          VAR    BASINP    GEOM    SYMINP    ZMAT    AOBASIS   BASIS     P2S    ABASIS      S 
                                         1400     1410     1420     1200     1210     1080     1600     1650     1300     1700   
                                           T        V       ECP      H0       H01     AOSYM     SMH    MOLCAS    ERIS     OPER   

              2       6        6.03       200      700     1000      520     2100     2101   
                                        OPTIONS   GEOM     BASIS   MCVARS     RHF      RHF  

 PROGRAMS   *        TOTAL       RHF  UCCSD(T)       RHF       INT
 CPU TIMES  *         4.43      0.44      0.19      0.25      3.40
 REAL TIME  *         5.65 SEC
 DISK USED  *       135.65 MB      
 **********************************************************************************************************************************
 SETTING SCF(2)         =        -0.18230815  AU                              
 SETTING _CC_NORM_MAX   =         2.00000000                                  


1PROGRAM * CCSD (Unrestricted open-shell coupled cluster)     Authors: C. Hampel, H.-J. Werner, 1991, M. Deegan, P.J. Knowles, 1992


 Convergence thresholds:  THRVAR = 1.00D-08  THRDEN = 1.00D-06

 CCSD(T)     terms to be evaluated (factor= 1.000)


 Number of closed-shell orbitals:   1 (   1   0   0   0   0   0   0   0 )
 Number of external orbitals:     160 (  38  27  27  11  27  11  11   8 )

 Memory could be reduced to 4.22 Mwords without degradation in triples

 Number of N-1 electron functions:               2
 Number of N-2 electron functions:               1
 Number of singly external CSFs:                76
 Number of doubly external CSFs:              4066
 Total number of CSFs:                        4142

 Molecular orbitals read from record     2101.2  Type=RHF/CANONICAL (state 1.1)

 Integral transformation finished. Total CPU:   0.10 sec, npass=  1  Memory used:   0.37 MW

 Starting RMP2 calculation

 ITER.      SQ.NORM     CORR.ENERGY   TOTAL ENERGY   ENERGY CHANGE        DEN1      VAR(S)    VAR(P)  DIIS     TIME
   1      1.03072150    -0.01532472    -0.19763286    -0.01532472    -0.00113521  0.11D-13  0.20D-02  1  1     0.11
   2      1.03927819    -0.01698193    -0.19929007    -0.00165721    -0.00001903  0.23D-14  0.37D-04  2  2     0.11
   3      1.04026210    -0.01709380    -0.19940195    -0.00011188    -0.00000065  0.43D-15  0.14D-05  3  3     0.11
   4      1.04036220    -0.01709998    -0.19940813    -0.00000618    -0.00000003  0.68D-16  0.59D-07  4  4     0.11
   5      1.04037088    -0.01710035    -0.19940849    -0.00000036    -0.00000000  0.94D-17  0.19D-08  5  5     0.11

 Norm of t1 vector:      0.00000045      S-energy:    -0.00000000      T1 diagnostic:  0.00000022
 Norm of t2 vector:      0.20092506      P-energy:    -0.01710035
                                         Alpha-Beta:  -0.01710035
                                         Alpha-Alpha:  0.00000000
                                         Beta-Beta:    0.00000000

 Spin contamination <S**2-Sz**2-Sz>     0.00000000
  Reference energy                     -0.182308146670
  RHF-RMP2 correlation energy          -0.017100348167
 !RHF-RMP2 energy                      -0.199408494837

 Starting UCCSD calculation

 ITER.      SQ.NORM     CORR.ENERGY   TOTAL ENERGY   ENERGY CHANGE        DEN1      VAR(S)    VAR(P)  DIIS     TIME
   1      1.03724563    -0.01585510    -0.19816325    -0.01585510    -0.00272723  0.32D-03  0.44D-02  1  1     0.19
   2      1.07135724    -0.02028927    -0.20259742    -0.00443417    -0.00070125  0.16D-03  0.11D-02  2  2     0.25
   3      1.10586410    -0.02323215    -0.20554029    -0.00294287    -0.00013706  0.53D-04  0.18D-03  3  3     0.30
   4      1.11876476    -0.02392359    -0.20623174    -0.00069144    -0.00002032  0.79D-05  0.28D-04  4  4     0.35
   5      1.12502185    -0.02424305    -0.20655119    -0.00031946    -0.00000482  0.49D-05  0.63D-05  5  5     0.40
   6      1.12563890    -0.02422234    -0.20653049     0.00002071    -0.00000151  0.24D-05  0.18D-05  6  6     0.45
   7      1.12681556    -0.02426446    -0.20657261    -0.00004212    -0.00000068  0.13D-05  0.68D-06  6  2     0.50
   8      1.12738546    -0.02426831    -0.20657646    -0.00000385    -0.00000018  0.41D-06  0.15D-06  6  1     0.56
   9      1.12781465    -0.02427648    -0.20658462    -0.00000817    -0.00000006  0.11D-06  0.61D-07  6  4     0.61
  10      1.12796314    -0.02427824    -0.20658639    -0.00000176    -0.00000001  0.18D-07  0.17D-07  6  3     0.66
  11      1.12804204    -0.02428019    -0.20658834    -0.00000196    -0.00000000  0.50D-09  0.20D-08  6  5     0.71
  12      1.12804964    -0.02428027    -0.20658841    -0.00000007    -0.00000000  0.28D-10  0.44D-09  6  6     0.76

 Norm of t1 vector:      0.09929516      S-energy:     0.00000000      T1 diagnostic:  0.04964758
                                                                       D1 diagnostic:  0.07021228
 Norm of t2 vector:      0.34378788      P-energy:    -0.02428027
                                         Alpha-Beta:  -0.02428027
                                         Alpha-Alpha:  0.00000000
                                         Beta-Beta:    0.00000000

 Singles amplitudes (print threshold =  0.500E-01):

         I         SYM. A    A   T(IA) [Alpha-Alpha]

         1         1         1     -0.06175413
 
         I         SYM. A    A   T(IA) [Beta-Beta]

         1         1         1     -0.06175413

 Doubles amplitudes (print threshold =  0.500E-01):

         I         J         SYM. A    SYM. B    A         B      T(IJ, AB) [Alpha-Beta]

         1         1         1         1         1         4     -0.05493581
         1         1         1         1         4         1     -0.05493581
         1         1         1         1         4         4     -0.07184833
         1         1         2         2         2         2     -0.08592780
         1         1         2         2         2         3     -0.08328231
         1         1         2         2         3         2     -0.08328231
         1         1         2         2         3         3     -0.08332055
         1         1         3         3         2         2     -0.08592780
         1         1         3         3         2         3     -0.08328231
         1         1         3         3         3         2     -0.08328231
         1         1         3         3         3         3     -0.08332055
         1         1         5         5         2         2     -0.08592780
         1         1         5         5         2         3     -0.08328231
         1         1         5         5         3         2     -0.08328231
         1         1         5         5         3         3     -0.08332055

 Spin contamination <S**2-Sz**2-Sz>     0.00000000

 Memory could be reduced to 4.21 Mwords without degradation in triples
 

 RESULTS
 =======

  Reference energy                     -0.182308146670
  UCCSD singles energy                  0.000000003629
  UCCSD pair energy                    -0.024280270690
  UCCSD correlation energy             -0.024280267061
  Triples (T) contribution              0.000000000000
  Total correlation energy             -0.024280267061
 
  RHF-UCCSD energy                     -0.206588413731
  RHF-UCCSD[T] energy                  -0.206588413731
  RHF-UCCSD-T energy                   -0.206588413731
 !RHF-UCCSD(T) energy                  -0.206588413731

 Program statistics:

 Available memory in ccsd:               511999882
 Min. memory needed in ccsd:                115960
 Max. memory used in ccsd:                  115960
 Max. memory used in cckext:                155293 (12 integral passes)
 Max. memory used in cckint:                367735 ( 1 integral passes)



 **********************************************************************************************************************************
 DATASETS  * FILE   NREC   LENGTH (MB)   RECORD NAMES
              1      20       37.87       500      610      700      900      950      970     1000      129      960     1100   
                                          VAR    BASINP    GEOM    SYMINP    ZMAT    AOBASIS   BASIS     P2S    ABASIS      S 
                                         1400     1410     1420     1200     1210     1080     1600     1650     1300     1700   
                                           T        V       ECP      H0       H01     AOSYM     SMH    MOLCAS    ERIS     OPER   

              2       6        6.03       200      700     1000      520     2100     2101   
                                        OPTIONS   GEOM     BASIS   MCVARS     RHF      RHF  

 PROGRAMS   *        TOTAL  UCCSD(T)       RHF  UCCSD(T)       RHF       INT
 CPU TIMES  *         5.25      0.82      0.44      0.19      0.25      3.40
 REAL TIME  *         6.76 SEC
 DISK USED  *       135.65 MB      
 **********************************************************************************************************************************
 SETTING CCSD(2)        =        -0.20658841  AU                              
 Output type csv         
                                                                                                                                                                                                                                                                

      SCF,CCSD
   -0.18620177,   -0.18620177
   -0.18230815,   -0.20658841
                                                  

        UCCSD(T)        RHF-SCF         UCCSD(T)        RHF-SCF 
     -0.20658841     -0.18230815     -0.18620177     -0.18620177
 **********************************************************************************************************************************
 Variable memory released
