
 Primary working directories    : /tmp/cmelton
 Secondary working directories  : /tmp/cmelton
 Wavefunction directory         : /remote/cmelton/wfu/
 Main file repository           : /tmp/cmelton/

 SHA1      : 4c1979699e6aeda0524d0210415ba82a958648b0
 NAME      : 2012.1.39
 ARCHNAME  : Linux/x86_64
 FC        : /projects/sems/install/rhel6-x86_64/sems/compiler/intel/16.0.1/base/bin/ifort
 FCVERSION : 16.0.1
 BLASLIB   : -L/projects/sems/install/rhel6-x86_64/sems/compiler/intel/16.0.1/base/compilers_and_libraries_2016.1.150/linux/mkl/lib/intel64 -lmkl_intel_ilp64 -lmkl_sequential -lmkl_core
 id        : sandiacon

 Nodes             nprocs
 s989256.sandia.gov    1

 Using customized tuning parameters: mindgm=7; mindgv=16; mindgc=1; mindgr=1; noblas=0; minvec=7
 default implementation of scratch files=df  

 ***,Calculation for Be atom, singlet and triplet
 memory,512,m
 gthresh,twoint=1.0E-12
 geometry={
 1
 Mg
 Mg  0.0 0.0 0.0
 }
 
 basis={
 ecp,Mg,10,2,0
 3
   1  ,  6.04853770 ,   2.00000000
   3  ,  2.79698905 ,  12.09707540
   2  ,  2.54740820 , -17.10831330
 2
   2  ,  5.93601730 ,   6.42863103
   2  ,  1.59289065 ,  14.19549140
 2
   2  ,  1.58396886 ,   3.31506900
   2  ,  1.07729691 ,   4.40302510
 Including file /remote/cmelton/data/corrECP/2nd_row/aug-cc-pVDZ.basis
 }
 
 Including file /remote/cmelton/data/corrECP/2nd_row/Mg/Ne-core/basis/states.proc
 
 do i=1,2
 if (i.eq.1) then
     GS
 else if (i.eq.2) then
     IP1
 endif
 scf(i)=energy
 _CC_NORM_MAX=2.0
 {uccsd(t),maxit=400;core}
 ccsd(i)=energy
 enddo
 
 table,scf,ccsd
 save
 type,csv

 Variables initialized (782), CPU time= 0.01 sec
 Commands  initialized (547), CPU time= 0.01 sec, 517 directives.
 Default parameters read. Elapsed time= 0.34 sec

 Checking input...
 Passed
1


                                         ***  PROGRAM SYSTEM MOLPRO  ***
                         Copyright, University College Cardiff Consultants Limited, 2008

                                    Version 2012.1 linked Aug  2 2016 14:07:26


 **********************************************************************************************************************************
 LABEL *   Calculation for Be atom, singlet and triplet                                  
 Linux-3.10.0-693.21.1.el7.x86_64/s989256.sandia.gov(x86_64) 64 bit serial version       DATE: 30-Apr-18          TIME: 16:59:34  
 **********************************************************************************************************************************

 SHA1:             4c1979699e6aeda0524d0210415ba82a958648b0
 **********************************************************************************************************************************

 THRESHOLDS:

 ZERO    =  1.00D-12  ONEINT  =  1.00D-12  TWOINT  =  1.00D-12  PREFAC  =  1.00D-14  LOCALI  =  1.00D-09  EORDER  =  1.00D-04
 ENERGY  =  0.00D+00  ETEST   =  0.00D+00  EDENS   =  0.00D+00  THRDEDEF=  1.00D-06  GRADIENT=  1.00D-02  STEP    =  1.00D-03
 ORBITAL =  1.00D-05  CIVEC   =  1.00D-05  COEFF   =  1.00D-04  PRINTCI =  5.00D-02  PUNCHCI =  9.90D+01  OPTGRAD =  3.00D-04
 OPTENERG=  1.00D-06  OPTSTEP =  3.00D-04  THRGRAD =  1.00D-10  COMPRESS=  1.00D-11  VARMIN  =  1.00D-07  VARMAX  =  1.00D-03
 THRDOUB =  0.00D+00  THRDIV  =  1.00D-05  THRRED  =  1.00D-07  THRPSP  =  1.00D+00  THRDC   =  1.00D-10  THRCS   =  1.00D-10
 THRNRM  =  1.00D-08  THREQ   =  0.00D+00  THRDE   =  1.00D+00  THRREF  =  1.00D-05  SPARFAC =  1.00D+00  THRDLP  =  1.00D-07
 THRDIA  =  1.00D-10  THRDLS  =  1.00D-07  THRGPS  =  0.00D+00  THRKEX  =  0.00D+00  THRDIS  =  2.00D-01  THRVAR  =  1.00D-10
 THRLOC  =  1.00D-06  THRGAP  =  1.00D-06  THRLOCT = -1.00D+00  THRGAPT = -1.00D+00  THRORB  =  1.00D-06  THRMLTP =  0.00D+00
 THRCPQCI=  1.00D-10  KEXTA   =  0.00D+00  THRCOARS=  0.00D+00  SYMTOL  =  1.00D-06  GRADTOL =  1.00D-06  THROVL  =  1.00D-08
 THRORTH =  1.00D-08  GRID    =  1.00D-06  GRIDMAX =  1.00D-03  DTMAX   =  0.00D+00  THROCCDE=  1.00D-01  THROCCDE=  1.00D-01



Geometry recognized as XYZ


 Variable memory set to  512000000 words,  buffer space   230000 words

 SETTING BASIS          =    USERDEF

 DO I                   =         1.00000000   

 Running procedure=GS


 Recomputing integrals since basis changed


 Using spherical harmonics


1PROGRAM * SEWARD (Integral evaluation for generally contracted gaussian basis sets)     Author: Roland Lindh, 1990

 Geometry written to block  1 of record 700

 Orientation using atomic masses  
 Molecule type: Atom
 Symmetry elements: X,Y,Z
 Rotational constants:       0.0000000      0.0000000      0.0000000 GHz  (calculated with average atomic masses)

 Point group  D2h 



 ATOMIC COORDINATES

 NR  ATOM    CHARGE       X              Y              Z

   1  MG      2.00    0.000000000    0.000000000    0.000000000

 NUCLEAR CHARGE:                    2
 NUMBER OF PRIMITIVE AOS:          52
 NUMBER OF SYMMETRY AOS:           50
 NUMBER OF CONTRACTIONS:           50   (  17Ag  +   9B3u +   9B2u +   2B1g +   9B1u +   2B2g +   2B3g +   0Au  )
 NUMBER OF CORE ORBITALS:           0   (   0Ag  +   0B3u +   0B2u +   0B1g +   0B1u +   0B2g +   0B3g +   0Au  )
 NUMBER OF VALENCE ORBITALS:        4   (   1Ag  +   1B3u +   1B2u +   0B1g +   1B1u +   0B2g +   0B3g +   0Au  )


 NUCLEAR REPULSION ENERGY    0.00000000

 EXTRA SYMMETRY OF AOS IN SYMMETRY 1:   1 1 1 1 1 1 1 1 1 1   1 1 1 2 3 2 3

 Eigenvalues of metric

         1 0.727E-02 0.258E-01 0.396E-01 0.699E-01 0.139E+00 0.270E+00 0.409E+00 0.420E+00
         2 0.445E-01 0.126E+00 0.216E+00 0.419E+00 0.713E+00 0.101E+01 0.156E+01 0.208E+01
         3 0.445E-01 0.126E+00 0.216E+00 0.419E+00 0.713E+00 0.101E+01 0.156E+01 0.208E+01
         4 0.420E+00 0.158E+01
         5 0.445E-01 0.126E+00 0.216E+00 0.419E+00 0.713E+00 0.101E+01 0.156E+01 0.208E+01
         6 0.420E+00 0.158E+01
         7 0.420E+00 0.158E+01


 Contracted 2-electron integrals neglected if value below      1.0D-12
 AO integral compression algorithm  1   Integral accuracy      1.0D-12

     2.097 MB (compressed) written to integral file ( 66.1%)


 NUMBER OF SORTED TWO-ELECTRON INTEGRALS:     131061.     BUFFER LENGTH:  32768
 NUMBER OF SEGMENTS:   1  SEGMENT LENGTH:     131061      RECORD LENGTH: 524288

 Memory used in sort:       0.69 MW

 SORT1 READ      354588. AND WROTE      117366. INTEGRALS IN      1 RECORDS. CPU TIME:     0.01 SEC, REAL TIME:     0.01 SEC
 SORT2 READ      117366. AND WROTE      131061. INTEGRALS IN      8 RECORDS. CPU TIME:     0.02 SEC, REAL TIME:     0.03 SEC

 FILE SIZES:   FILE 1:     9.7 MBYTE,  FILE 4:     4.2 MBYTE,   TOTAL:     13.9 MBYTE

 OPERATOR DM      FOR CENTER  0  COORDINATES:    0.000000    0.000000    0.000000


 **********************************************************************************************************************************
 DATASETS  * FILE   NREC   LENGTH (MB)   RECORD NAMES
              1      20        8.20       500      610      700      900      950      970     1000      129      960     1100   
                                          VAR    BASINP    GEOM    SYMINP    ZMAT    AOBASIS   BASIS     P2S    ABASIS      S 
                                         1400     1410     1420     1200     1210     1080     1600     1650     1300     1700   
                                           T        V       ECP      H0       H01     AOSYM     SMH    MOLCAS    ERIS     OPER   

 PROGRAMS   *        TOTAL       INT
 CPU TIMES  *         0.52      0.35
 REAL TIME  *         1.34 SEC
 DISK USED  *        14.70 MB      
 **********************************************************************************************************************************

1PROGRAM * RHF-SCF (CLOSED SHELL)       Authors: W. Meyer, H.-J. Werner


 NUMBER OF ELECTRONS:       1+    1-    SPACE SYMMETRY=1    SPIN SYMMETRY: Singlet 
 CONVERGENCE THRESHOLDS:    1.00E-05 (Density)    1.00E-07 (Energy)
 MAX. NUMBER OF ITERATIONS:       60
 INTERPOLATION TYPE:            DIIS
 INTERPOLATION STEPS:              2 (START)      1 (STEP)
 LEVEL SHIFTS:                  0.00 (CLOSED)  0.00 (OPEN) 

 Number of closed-shell orbitals:    1 (   1   0   0   0   0   0   0 )


 Orbital guess generated from atomic densities. Full valence occupancy:    1   0   0   0   0   0   0   0


 Molecular orbital dump at record        2100.2

 ITERATION    DDIFF          GRAD             ENERGY        2-EL.EN.            DIPOLE MOMENTS         DIIS   ORB.
    1      0.000D+00      0.000D+00        -0.78805987      0.560074    0.00000    0.00000    0.00000    0    start
    2      0.000D+00      0.184D-02        -0.78809894      0.560620    0.00000    0.00000    0.00000    1    diag
    3      0.647D-03      0.191D-03        -0.78809958      0.560740    0.00000    0.00000    0.00000    2    diag
    4      0.236D-03      0.994D-05        -0.78809959      0.560753    0.00000    0.00000    0.00000    3    diag
    5      0.575D-04      0.165D-05        -0.78809959      0.560753    0.00000    0.00000    0.00000    4    diag
    6      0.120D-04      0.156D-06        -0.78809959      0.560752    0.00000    0.00000    0.00000    5    diag
    7      0.604D-06      0.703D-08        -0.78809959      0.560752    0.00000    0.00000    0.00000    0    orth

 Final occupancy:   1   0   0   0   0   0   0

 !RHF STATE 1.1 Energy                 -0.788099588247
 Nuclear energy                         0.00000000
 One-electron energy                   -1.06847543
 Two-electron energy                    0.28037585
 Virial quotient                       -3.40475189
 !RHF STATE 1.1 Dipole moment           0.00000000     0.00000000     0.00000000
 Dipole moment /Debye                   0.00000000     0.00000000     0.00000000

 Orbital energies:

         1.1          2.1          3.1
     -0.253862     0.037322     0.174363

         1.2          2.2
      0.016589     0.063532

         1.3          2.3
      0.016589     0.063532

         1.4          2.4
      0.174363     0.583502

         1.5          2.5
      0.016589     0.063532

         1.6          2.6
      0.174363     0.583502

         1.7          2.7
      0.174363     0.583502

 HOMO      1.1    -0.253862 =      -6.9079eV
 LUMO      1.2     0.016589 =       0.4514eV
 LUMO-HOMO         0.270451 =       7.3594eV


 **********************************************************************************************************************************
 DATASETS  * FILE   NREC   LENGTH (MB)   RECORD NAMES
              1      20        8.20       500      610      700      900      950      970     1000      129      960     1100   
                                          VAR    BASINP    GEOM    SYMINP    ZMAT    AOBASIS   BASIS     P2S    ABASIS      S 
                                         1400     1410     1420     1200     1210     1080     1600     1650     1300     1700   
                                           T        V       ECP      H0       H01     AOSYM     SMH    MOLCAS    ERIS     OPER   

              2       5        3.27       200      700     1000      520     2100   
                                        OPTIONS   GEOM     BASIS   MCVARS     RHF  

 PROGRAMS   *        TOTAL       RHF       INT
 CPU TIMES  *         0.57      0.05      0.35
 REAL TIME  *         1.47 SEC
 DISK USED  *        14.70 MB      
 **********************************************************************************************************************************
 SETTING SCF(1)         =        -0.78809959  AU                              
 SETTING _CC_NORM_MAX   =         2.00000000                                  


1PROGRAM * CCSD (Unrestricted open-shell coupled cluster)     Authors: C. Hampel, H.-J. Werner, 1991, M. Deegan, P.J. Knowles, 1992


 Convergence thresholds:  THRVAR = 1.00D-08  THRDEN = 1.00D-06

 CCSD(T)     terms to be evaluated (factor= 1.000)


 Number of closed-shell orbitals:   1 (   1   0   0   0   0   0   0 )
 Number of external orbitals:      49 (  16   9   9   2   9   2   2 )

 Memory could be reduced to 0.43 Mwords without degradation in triples

 Number of N-1 electron functions:               2
 Number of N-2 electron functions:               1
 Number of singly external CSFs:                32
 Number of doubly external CSFs:               517
 Total number of CSFs:                         549

 Molecular orbitals read from record     2100.2  Type=RHF/CANONICAL (state 1.1)

 Integral transformation finished. Total CPU:   0.01 sec, npass=  1  Memory used:   0.08 MW

 Starting RMP2 calculation

 ITER.      SQ.NORM     CORR.ENERGY   TOTAL ENERGY   ENERGY CHANGE        DEN1      VAR(S)    VAR(P)  DIIS     TIME
   1      1.02533482    -0.02197240    -0.81007199    -0.02197240    -0.00070943  0.87D-16  0.75D-03  1  1     0.01
   2      1.02769812    -0.02285956    -0.81095915    -0.00088716    -0.00000200  0.26D-17  0.21D-05  2  2     0.01
   3      1.02777028    -0.02287582    -0.81097541    -0.00001626    -0.00000001  0.85D-19  0.66D-08  3  3     0.01
   4      1.02777150    -0.02287594    -0.81097553    -0.00000012    -0.00000000  0.38D-20  0.32D-10  4  4     0.01

 Norm of t1 vector:      0.00000004      S-energy:    -0.00000000      T1 diagnostic:  0.00000002
 Norm of t2 vector:      0.16664783      P-energy:    -0.02287594
                                         Alpha-Beta:  -0.02287594
                                         Alpha-Alpha:  0.00000000
                                         Beta-Beta:    0.00000000

 Spin contamination <S**2-Sz**2-Sz>     0.00000000
  Reference energy                     -0.788099588247
  RHF-RMP2 correlation energy          -0.022875942795
 !RHF-RMP2 energy                      -0.810975531042

 Starting UCCSD calculation

 ITER.      SQ.NORM     CORR.ENERGY   TOTAL ENERGY   ENERGY CHANGE        DEN1      VAR(S)    VAR(P)  DIIS     TIME
   1      1.03715663    -0.02595566    -0.81405525    -0.02595566    -0.00372541  0.10D-03  0.39D-02  1  1     0.01
   2      1.06370731    -0.03234253    -0.82044212    -0.00638688    -0.00041049  0.47D-04  0.34D-03  2  2     0.02
   3      1.07445093    -0.03387024    -0.82196982    -0.00152770    -0.00001769  0.98D-06  0.14D-04  3  3     0.02
   4      1.07668329    -0.03418052    -0.82228011    -0.00031029    -0.00000090  0.17D-07  0.76D-06  4  4     0.02
   5      1.07662824    -0.03415128    -0.82225087     0.00002925    -0.00000004  0.83D-09  0.41D-07  5  5     0.02
   6      1.07671090    -0.03416271    -0.82226230    -0.00001143    -0.00000000  0.23D-09  0.46D-08  6  6     0.03
   7      1.07672030    -0.03416346    -0.82226305    -0.00000075    -0.00000000  0.77D-10  0.14D-09  6  1     0.03

 Norm of t1 vector:      0.03319061      S-energy:     0.00000000      T1 diagnostic:  0.01659531
                                                                       D1 diagnostic:  0.02346931
 Norm of t2 vector:      0.27498851      P-energy:    -0.03416346
                                         Alpha-Beta:  -0.03416346
                                         Alpha-Alpha:  0.00000000
                                         Beta-Beta:    0.00000000

 Doubles amplitudes (print threshold =  0.500E-01):

         I         J         SYM. A    SYM. B    A         B      T(IJ, AB) [Alpha-Beta]

         1         1         2         2         1         2     -0.05097389
         1         1         2         2         2         1     -0.05097389
         1         1         2         2         2         2     -0.09213875
         1         1         2         2         2         3     -0.05612279
         1         1         2         2         3         2     -0.05612279
         1         1         3         3         1         2     -0.05097389
         1         1         3         3         2         1     -0.05097389
         1         1         3         3         2         2     -0.09213875
         1         1         3         3         2         3     -0.05612279
         1         1         3         3         3         2     -0.05612279
         1         1         5         5         1         2     -0.05097389
         1         1         5         5         2         1     -0.05097389
         1         1         5         5         2         2     -0.09213875
         1         1         5         5         2         3     -0.05612279
         1         1         5         5         3         2     -0.05612279

 Spin contamination <S**2-Sz**2-Sz>     0.00000000

 Memory could be reduced to 0.43 Mwords without degradation in triples
 

 RESULTS
 =======

  Reference energy                     -0.788099588247
  UCCSD singles energy                  0.000000000427
  UCCSD pair energy                    -0.034163460744
  UCCSD correlation energy             -0.034163460318
  Triples (T) contribution              0.000000000000
  Total correlation energy             -0.034163460318
 
  RHF-UCCSD energy                     -0.822263048564
  RHF-UCCSD[T] energy                  -0.822263048564
  RHF-UCCSD-T energy                   -0.822263048564
 !RHF-UCCSD(T) energy                  -0.822263048564

 Program statistics:

 Available memory in ccsd:               511999882
 Min. memory needed in ccsd:                 15308
 Max. memory used in ccsd:                   15308
 Max. memory used in cckext:                 44859 ( 7 integral passes)
 Max. memory used in cckint:                 75944 ( 1 integral passes)



 **********************************************************************************************************************************
 DATASETS  * FILE   NREC   LENGTH (MB)   RECORD NAMES
              1      20        8.20       500      610      700      900      950      970     1000      129      960     1100   
                                          VAR    BASINP    GEOM    SYMINP    ZMAT    AOBASIS   BASIS     P2S    ABASIS      S 
                                         1400     1410     1420     1200     1210     1080     1600     1650     1300     1700   
                                           T        V       ECP      H0       H01     AOSYM     SMH    MOLCAS    ERIS     OPER   

              2       5        3.27       200      700     1000      520     2100   
                                        OPTIONS   GEOM     BASIS   MCVARS     RHF  

 PROGRAMS   *        TOTAL  UCCSD(T)       RHF       INT
 CPU TIMES  *         0.64      0.07      0.05      0.35
 REAL TIME  *         1.74 SEC
 DISK USED  *        14.70 MB      
 **********************************************************************************************************************************
 SETTING CCSD(1)        =        -0.82226305  AU                              

 DO I                   =         2.00000000   

 Running procedure=IP1

1PROGRAM * RHF-SCF (OPEN SHELL)       Authors: W. Meyer, H.-J. Werner


 NUMBER OF ELECTRONS:       1+    0-    SPACE SYMMETRY=1    SPIN SYMMETRY: Doublet 
 CONVERGENCE THRESHOLDS:    1.00E-05 (Density)    1.00E-07 (Energy)
 MAX. NUMBER OF ITERATIONS:       60
 INTERPOLATION TYPE:            DIIS
 INTERPOLATION STEPS:              2 (START)      1 (STEP)
 LEVEL SHIFTS:                 -0.30 (CLOSED)  0.00 (OPEN) 



 Orbital guess generated from atomic densities. Full valence occupancy:    1   0   0   0   0   0   0   0


 Molecular orbital dump at record        2101.2

 ITERATION    DDIFF          GRAD             ENERGY        2-EL.EN.            DIPOLE MOMENTS         DIIS   ORB.
    1      0.000D+00      0.000D+00        -0.53404846     -0.000000    0.00000    0.00000    0.00000    0    start
    2      0.000D+00      0.736D-02        -0.54316151      0.000000    0.00000    0.00000    0.00000    1    diag,B
    3      0.202D-01      0.272D-02        -0.54457303      0.000000    0.00000    0.00000    0.00000    2    diag,B
    4      0.135D-01      0.479D-04        -0.54457332     -0.000000    0.00000    0.00000    0.00000    3    diag,B
    5      0.263D-03      0.485D-05        -0.54457332      0.000000    0.00000    0.00000    0.00000    4    diag,B
    6      0.179D-04      0.326D-06        -0.54457332     -0.000000    0.00000    0.00000    0.00000    5    diag,B
    7      0.851D-06      0.148D-07        -0.54457332     -0.000000    0.00000    0.00000    0.00000    0    orth

 Final alpha occupancy:   1   0   0   0   0   0   0
 Final beta  occupancy:   0   0   0   0   0   0   0

 !RHF STATE 1.1 Energy                 -0.544573322755
 Nuclear energy                         0.00000000
 One-electron energy                   -0.54457332
 Two-electron energy                   -0.00000000
 Virial quotient                       -3.49145832
 !RHF STATE 1.1 Dipole moment           0.00000000     0.00000000     0.00000000
 Dipole moment /Debye                   0.00000000     0.00000000     0.00000000

 Orbital energies:

         1.1          2.1          3.1
     -0.544573    -0.088151    -0.015906

         1.2          2.2
     -0.171067    -0.060711

         1.3          2.3
     -0.171067    -0.060711

         1.4          2.4
     -0.015906     0.319780

         1.5          2.5
     -0.171067    -0.060711

         1.6          2.6
     -0.015906     0.319780

         1.7          2.7
     -0.015906     0.319780

 HOMO      1.1    -0.544573 =     -14.8186eV
 LUMO      1.2    -0.171067 =      -4.6550eV
 LUMO-HOMO         0.373507 =      10.1636eV


 **********************************************************************************************************************************
 DATASETS  * FILE   NREC   LENGTH (MB)   RECORD NAMES
              1      20        8.20       500      610      700      900      950      970     1000      129      960     1100   
                                          VAR    BASINP    GEOM    SYMINP    ZMAT    AOBASIS   BASIS     P2S    ABASIS      S 
                                         1400     1410     1420     1200     1210     1080     1600     1650     1300     1700   
                                           T        V       ECP      H0       H01     AOSYM     SMH    MOLCAS    ERIS     OPER   

              2       6        5.80       200      700     1000      520     2100     2101   
                                        OPTIONS   GEOM     BASIS   MCVARS     RHF      RHF  

 PROGRAMS   *        TOTAL       RHF  UCCSD(T)       RHF       INT
 CPU TIMES  *         0.72      0.07      0.07      0.05      0.35
 REAL TIME  *         1.92 SEC
 DISK USED  *        14.70 MB      
 **********************************************************************************************************************************
 SETTING SCF(2)         =        -0.54457332  AU                              
 SETTING _CC_NORM_MAX   =         2.00000000                                  


1PROGRAM * CCSD (Unrestricted open-shell coupled cluster)     Authors: C. Hampel, H.-J. Werner, 1991, M. Deegan, P.J. Knowles, 1992


 Convergence thresholds:  THRVAR = 1.00D-08  THRDEN = 1.00D-06

 CCSD(T)     terms to be evaluated (factor= 1.000)


 Number of active  orbitals:        1 (   1   0   0   0   0   0   0 )
 Number of external orbitals:      49 (  16   9   9   2   9   2   2 )

 Memory could be reduced to 0.43 Mwords without degradation in triples

 Number of N-1 electron functions:               1
 Number of N-2 electron functions:               0
 Number of singly external CSFs:                17
 Number of doubly external CSFs:                 0
 Total number of CSFs:                          17

 Molecular orbitals read from record     2101.2  Type=RHF/CANONICAL (state 1.1)

 Integral transformation finished. Total CPU:   0.00 sec, npass=  1  Memory used:   0.08 MW

 Starting RMP2 calculation

 ITER.      SQ.NORM     CORR.ENERGY   TOTAL ENERGY   ENERGY CHANGE        DEN1      VAR(S)    VAR(P)  DIIS     TIME
   1      1.00000000    -0.00000000    -0.54457332    -0.00000000    -0.00000000  0.24D-16  0.00D+00  1  1     0.01

 Norm of t1 vector:      0.00000003      S-energy:    -0.00000000      T1 diagnostic:  0.00000002
 Norm of t2 vector:      0.00000000      P-energy:     0.00000000
                                         Alpha-Beta:   0.00000000
                                         Alpha-Alpha:  0.00000000
                                         Beta-Beta:    0.00000000

 Spin contamination <S**2-Sz**2-Sz>     0.00000000
  Reference energy                     -0.544573322755
  RHF-RMP2 correlation energy          -0.000000000000
 !RHF-RMP2 energy                      -0.544573322755

 Starting UCCSD calculation

 ITER.      SQ.NORM     CORR.ENERGY   TOTAL ENERGY   ENERGY CHANGE        DEN1      VAR(S)    VAR(P)  DIIS     TIME
   1      1.00000000    -0.00000000    -0.54457332    -0.00000000    -0.00000000  0.11D-15  0.00D+00  1  1     0.01

 Norm of t1 vector:      0.00000003      S-energy:    -0.00000000      T1 diagnostic:  0.00000002
                                                                       D1 diagnostic:  0.00000002
 Norm of t2 vector:      0.00000000      P-energy:     0.00000000
                                         Alpha-Beta:   0.00000000
                                         Alpha-Alpha:  0.00000000
                                         Beta-Beta:    0.00000000

 Spin contamination <S**2-Sz**2-Sz>     0.00000000

 Memory could be reduced to 0.44 Mwords without degradation in triples
 

 RESULTS
 =======

  Reference energy                     -0.544573322755
  UCCSD singles energy                 -0.000000000000
  UCCSD pair energy                     0.000000000000
  UCCSD correlation energy             -0.000000000000
  Triples (T) contribution              0.000000000000
  Total correlation energy             -0.000000000000
 
  RHF-UCCSD energy                     -0.544573322755
  RHF-UCCSD[T] energy                  -0.544573322755
  RHF-UCCSD-T energy                   -0.544573322755
 !RHF-UCCSD(T) energy                  -0.544573322755

 Program statistics:

 Available memory in ccsd:               511999882
 Min. memory needed in ccsd:                 14785
 Max. memory used in ccsd:                   14785
 Max. memory used in cckext:                 43708 ( 1 integral passes)
 Max. memory used in cckint:                 75984 ( 1 integral passes)



 **********************************************************************************************************************************
 DATASETS  * FILE   NREC   LENGTH (MB)   RECORD NAMES
              1      20        8.20       500      610      700      900      950      970     1000      129      960     1100   
                                          VAR    BASINP    GEOM    SYMINP    ZMAT    AOBASIS   BASIS     P2S    ABASIS      S 
                                         1400     1410     1420     1200     1210     1080     1600     1650     1300     1700   
                                           T        V       ECP      H0       H01     AOSYM     SMH    MOLCAS    ERIS     OPER   

              2       6        5.80       200      700     1000      520     2100     2101   
                                        OPTIONS   GEOM     BASIS   MCVARS     RHF      RHF  

 PROGRAMS   *        TOTAL  UCCSD(T)       RHF  UCCSD(T)       RHF       INT
 CPU TIMES  *         0.78      0.06      0.07      0.07      0.05      0.35
 REAL TIME  *         2.10 SEC
 DISK USED  *        14.75 MB      
 **********************************************************************************************************************************
 SETTING CCSD(2)        =        -0.54457332  AU                              
 Output type csv         
                                                                                                                                                                                                                                                                

      SCF,CCSD
   -0.78809959,   -0.82226305
   -0.54457332,   -0.54457332
                                                  

        UCCSD(T)        RHF-SCF         UCCSD(T)        RHF-SCF 
     -0.54457332     -0.54457332     -0.82226305     -0.78809959
 **********************************************************************************************************************************
 Variable memory released
