
 Primary working directories    : /tmp/cmelton
 Secondary working directories  : /tmp/cmelton
 Wavefunction directory         : /remote/cmelton/wfu/
 Main file repository           : /tmp/cmelton/

 SHA1      : 4c1979699e6aeda0524d0210415ba82a958648b0
 NAME      : 2012.1.39
 ARCHNAME  : Linux/x86_64
 FC        : /projects/sems/install/rhel6-x86_64/sems/compiler/intel/16.0.1/base/bin/ifort
 FCVERSION : 16.0.1
 BLASLIB   : -L/projects/sems/install/rhel6-x86_64/sems/compiler/intel/16.0.1/base/compilers_and_libraries_2016.1.150/linux/mkl/lib/intel64 -lmkl_intel_ilp64 -lmkl_sequential -lmkl_core
 id        : sandiacon

 Nodes             nprocs
 s989256.sandia.gov    1

 Using customized tuning parameters: mindgm=7; mindgv=16; mindgc=1; mindgr=1; noblas=0; minvec=7
 default implementation of scratch files=df  

 ***,Calculation for Be atom, singlet and triplet
 memory,512,m
 gthresh,twoint=1.0E-12
 
 geometry={
 1
 Na
 Na  0.0 0.0 0.0
 }
 
 basis={
 ecp,Na,10,2,0
 5
   1,0, 1
   1,0,-9
   1  ,  11.99983500  ,    9.00000000
   3  ,  11.94985400  ,  107.99851500
   2  ,  12.04004600  ,  -69.25461900
 1
   2  ,  29.94712200  ,  221.73468900
 1
   1  , 1.0 , 0
 Including file aug-cc-pCV5Z.basis
 }
 
 Including file Na/He-core/basis/states.proc
 
 do i=1,3
 if (i.eq.1) then
     GS
 else if (i.eq.2) then
     IP
 else if (i.eq.3) then
     EA
 endif
 scf(i)=energy
 _CC_NORM_MAX=2.0
 {uccsd(t),maxit=400;core}
 ccsd(i)=energy
 enddo
 
 table,scf,ccsd
 save
 type,csv

 Variables initialized (782), CPU time= 0.01 sec
 Commands  initialized (547), CPU time= 0.01 sec, 517 directives.
 Default parameters read. Elapsed time= 0.18 sec

 Checking input...
 Passed
1


                                         ***  PROGRAM SYSTEM MOLPRO  ***
                         Copyright, University College Cardiff Consultants Limited, 2008

                                    Version 2012.1 linked Aug  2 2016 14:07:26


 **********************************************************************************************************************************
 LABEL *   Calculation for Be atom, singlet and triplet                                  
 Linux-3.10.0-693.21.1.el7.x86_64/s989256.sandia.gov(x86_64) 64 bit serial version       DATE: 27-Apr-18          TIME: 13:54:10  
 **********************************************************************************************************************************

 SHA1:             4c1979699e6aeda0524d0210415ba82a958648b0
 **********************************************************************************************************************************

 THRESHOLDS:

 ZERO    =  1.00D-12  ONEINT  =  1.00D-12  TWOINT  =  1.00D-12  PREFAC  =  1.00D-14  LOCALI  =  1.00D-09  EORDER  =  1.00D-04
 ENERGY  =  0.00D+00  ETEST   =  0.00D+00  EDENS   =  0.00D+00  THRDEDEF=  1.00D-06  GRADIENT=  1.00D-02  STEP    =  1.00D-03
 ORBITAL =  1.00D-05  CIVEC   =  1.00D-05  COEFF   =  1.00D-04  PRINTCI =  5.00D-02  PUNCHCI =  9.90D+01  OPTGRAD =  3.00D-04
 OPTENERG=  1.00D-06  OPTSTEP =  3.00D-04  THRGRAD =  1.00D-10  COMPRESS=  1.00D-11  VARMIN  =  1.00D-07  VARMAX  =  1.00D-03
 THRDOUB =  0.00D+00  THRDIV  =  1.00D-05  THRRED  =  1.00D-07  THRPSP  =  1.00D+00  THRDC   =  1.00D-10  THRCS   =  1.00D-10
 THRNRM  =  1.00D-08  THREQ   =  0.00D+00  THRDE   =  1.00D+00  THRREF  =  1.00D-05  SPARFAC =  1.00D+00  THRDLP  =  1.00D-07
 THRDIA  =  1.00D-10  THRDLS  =  1.00D-07  THRGPS  =  0.00D+00  THRKEX  =  0.00D+00  THRDIS  =  2.00D-01  THRVAR  =  1.00D-10
 THRLOC  =  1.00D-06  THRGAP  =  1.00D-06  THRLOCT = -1.00D+00  THRGAPT = -1.00D+00  THRORB  =  1.00D-06  THRMLTP =  0.00D+00
 THRCPQCI=  1.00D-10  KEXTA   =  0.00D+00  THRCOARS=  0.00D+00  SYMTOL  =  1.00D-06  GRADTOL =  1.00D-06  THROVL  =  1.00D-08
 THRORTH =  1.00D-08  GRID    =  1.00D-06  GRIDMAX =  1.00D-03  DTMAX   =  0.00D+00  THROCCDE=  1.00D-01  THROCCDE=  1.00D-01



Geometry recognized as XYZ


 Variable memory set to  512000000 words,  buffer space   230000 words

 SETTING BASIS          =    USERDEF

 DO I                   =         1.00000000   

 Running procedure=GS


 Recomputing integrals since basis changed


 Using spherical harmonics


1PROGRAM * SEWARD (Integral evaluation for generally contracted gaussian basis sets)     Author: Roland Lindh, 1990

 Geometry written to block  1 of record 700

 Orientation using atomic masses  
 Molecule type: Atom
 Symmetry elements: X,Y,Z
 Rotational constants:       0.0000000      0.0000000      0.0000000 GHz  (calculated with average atomic masses)

 Point group  D2h 



 ATOMIC COORDINATES

 NR  ATOM    CHARGE       X              Y              Z

   1  NA      1.00    0.000000000    0.000000000    0.000000000

 NUCLEAR CHARGE:                    1
 NUMBER OF PRIMITIVE AOS:         337
 NUMBER OF SYMMETRY AOS:          247
 NUMBER OF CONTRACTIONS:          247   (  57Ag  +  40B3u +  40B2u +  19B1g +  40B1u +  19B2g +  19B3g +  13Au  )
 NUMBER OF CORE ORBITALS:           0   (   0Ag  +   0B3u +   0B2u +   0B1g +   0B1u +   0B2g +   0B3g +   0Au  )
 NUMBER OF VALENCE ORBITALS:        4   (   1Ag  +   1B3u +   1B2u +   0B1g +   1B1u +   0B2g +   0B3g +   0Au  )


 NUCLEAR REPULSION ENERGY    0.00000000

 EXTRA SYMMETRY OF AOS IN SYMMETRY 1:   1 1 1 1 1 1 1 1 1 1   1 1 1 1 1 1 1 1 1 1   1 1 1 1 2 3 2 3 2 3   2 3 2 3 2 3 2 3 2 3
                                        2 3 4 5 6 4 5 6 4 5   6 4 5 6 4 5 6
 EXTRA SYMMETRY OF AOS IN SYMMETRY 2:   1 1 1 1 1 1 1 1 1 1   1 1 1 1 1 1 1 2 3 2   3 2 3 2 3 2 3 2 3 2   3 4 5 6 4 5 6 4 5 6
 EXTRA SYMMETRY OF AOS IN SYMMETRY 3:   1 1 1 1 1 1 1 1 1 1   1 1 1 1 1 1 1 2 3 2   3 2 3 2 3 2 3 2 3 2   3 4 5 6 4 5 6 4 5 6
 EXTRA SYMMETRY OF AOS IN SYMMETRY 4:   1 1 1 1 1 1 1 1 1 2   3 2 3 2 3 2 3 2 3
 EXTRA SYMMETRY OF AOS IN SYMMETRY 5:   1 1 1 1 1 1 1 1 1 1   1 1 1 1 1 1 1 2 3 2   3 2 3 2 3 2 3 2 3 2   3 4 5 6 4 5 6 4 5 6
 EXTRA SYMMETRY OF AOS IN SYMMETRY 6:   1 1 1 1 1 1 1 1 1 2   3 2 3 2 3 2 3 2 3
 EXTRA SYMMETRY OF AOS IN SYMMETRY 7:   1 1 1 1 1 1 1 1 1 2   3 2 3 2 3 2 3 2 3
 EXTRA SYMMETRY OF AOS IN SYMMETRY 8:   1 1 1 1 1 1 1 2 3 2   3 2 3

 Eigenvalues of metric

         1 0.678E-07 0.294E-05 0.139E-04 0.654E-04 0.754E-03 0.256E-02 0.427E-02 0.427E-02
         2 0.649E-07 0.215E-05 0.471E-04 0.296E-03 0.184E-02 0.212E-01 0.326E-01 0.420E-01
         3 0.649E-07 0.215E-05 0.471E-04 0.296E-03 0.184E-02 0.212E-01 0.326E-01 0.420E-01
         4 0.427E-02 0.381E-01 0.634E-01 0.222E+00 0.222E+00 0.233E+00 0.376E+00 0.469E+00
         5 0.649E-07 0.215E-05 0.471E-04 0.296E-03 0.184E-02 0.212E-01 0.326E-01 0.420E-01
         6 0.427E-02 0.381E-01 0.634E-01 0.222E+00 0.222E+00 0.233E+00 0.376E+00 0.469E+00
         7 0.427E-02 0.381E-01 0.634E-01 0.222E+00 0.222E+00 0.233E+00 0.376E+00 0.469E+00
         8 0.420E-01 0.153E+00 0.284E+00 0.284E+00 0.343E+00 0.741E+00 0.100E+01 0.100E+01


 Contracted 2-electron integrals neglected if value below      1.0D-13
 AO integral compression algorithm  1   Integral accuracy      1.0D-13

     337.904 MB (compressed) written to integral file ( 44.7%)


 NUMBER OF SORTED TWO-ELECTRON INTEGRALS:   60543220.     BUFFER LENGTH:  32768
 NUMBER OF SEGMENTS:   4  SEGMENT LENGTH:   15998904      RECORD LENGTH: 524288

 Memory used in sort:      16.56 MW

 SORT1 READ    94477537. AND WROTE    37291908. INTEGRALS IN    108 RECORDS. CPU TIME:     2.06 SEC, REAL TIME:     2.40 SEC
 SORT2 READ    37291908. AND WROTE    60543220. INTEGRALS IN   1289 RECORDS. CPU TIME:     0.96 SEC, REAL TIME:     1.20 SEC

 FILE SIZES:   FILE 1:   346.9 MBYTE,  FILE 4:   453.0 MBYTE,   TOTAL:    799.9 MBYTE

 OPERATOR DM      FOR CENTER  0  COORDINATES:    0.000000    0.000000    0.000000


 **********************************************************************************************************************************
 DATASETS  * FILE   NREC   LENGTH (MB)   RECORD NAMES
              1      20      209.38       500      610      700      900      950      970     1000      129      960     1100   
                                          VAR    BASINP    GEOM    SYMINP    ZMAT    AOBASIS   BASIS     P2S    ABASIS      S 
                                         1400     1410     1420     1200     1210     1080     1600     1650     1300     1700   
                                           T        V       ECP      H0       H01     AOSYM     SMH    MOLCAS    ERIS     OPER   

 PROGRAMS   *        TOTAL       INT
 CPU TIMES  *        20.34     20.24
 REAL TIME  *        22.03 SEC
 DISK USED  *       801.00 MB      
 **********************************************************************************************************************************

1PROGRAM * RHF-SCF (OPEN SHELL)       Authors: W. Meyer, H.-J. Werner


 NUMBER OF ELECTRONS:       5+    4-    SPACE SYMMETRY=1    SPIN SYMMETRY: Doublet 
 CONVERGENCE THRESHOLDS:    1.00E-05 (Density)    1.00E-07 (Energy)
 MAX. NUMBER OF ITERATIONS:       60
 INTERPOLATION TYPE:            DIIS
 INTERPOLATION STEPS:              2 (START)      1 (STEP)
 LEVEL SHIFTS:                 -0.30 (CLOSED)  0.00 (OPEN) 


 Singly occupied orbitals:      2.1
 Orbital guess generated from atomic densities. Full valence occupancy:    1   0   0   0   0   0   0   0


 Molecular orbital dump at record        2100.2

 ITERATION    DDIFF          GRAD             ENERGY        2-EL.EN.            DIPOLE MOMENTS         DIIS   ORB.
    1      0.000D+00      0.000D+00       -40.43918868     95.841692    0.00000    0.00000    0.00000    0    start
    2      0.000D+00      0.303D+00       -45.63257687     48.155683    0.00000    0.00000    0.00000    1    diag,B
    3      0.324D+01      0.135D+00       -47.53954906     66.273903    0.00000    0.00000    0.00000    2    diag,B
    4      0.109D+01      0.191D-01       -47.57513276     65.414552    0.00000    0.00000    0.00000    3    diag,B
    5      0.155D+01      0.272D-02       -47.57730419     65.281251    0.00000    0.00000    0.00000    4    diag,B
    6      0.266D+00      0.339D-03       -47.57737648     65.286358    0.00000    0.00000    0.00000    5    diag,B
    7      0.521D-02      0.376D-04       -47.57737978     65.281509    0.00000    0.00000    0.00000    6    fixocc
    8      0.560D-03      0.544D-05       -47.57737988     65.279602    0.00000    0.00000    0.00000    7    diag,B
    9      0.900D-04      0.113D-05       -47.57737989     65.279139    0.00000    0.00000    0.00000    8    diag,B
   10      0.123D-04      0.309D-06       -47.57737989     65.279013    0.00000    0.00000    0.00000    9    orth
   11      0.394D-05      0.355D-07       -47.57737989     65.279007    0.00000    0.00000    0.00000    0    orth

 Final alpha occupancy:   2   1   1   0   1   0   0   0
 Final beta  occupancy:   1   1   1   0   1   0   0   0

 !RHF STATE 1.1 Energy                -47.577379886891
 Nuclear energy                         0.00000000
 One-electron energy                  -80.21688328
 Two-electron energy                   32.63950339
 Virial quotient                       -1.22471523
 !RHF STATE 1.1 Dipole moment           0.00000000     0.00000000     0.00000000
 Dipole moment /Debye                   0.00000000     0.00000000     0.00000000

 Orbital energies:

         1.1          2.1          3.1          4.1
     -2.827136    -0.182317     0.010720     0.061957

         1.2          2.2          3.2
     -1.516881     0.009154     0.027828

         1.3          2.3          3.3
     -1.516881     0.009154     0.027828

         1.4          2.4
      0.061957     0.172365

         1.5          2.5          3.5
     -1.516881     0.009154     0.027828

         1.6          2.6
      0.061957     0.172365

         1.7          2.7
      0.061957     0.172365

         1.8          2.8
      0.163635     0.463242

 HOMO      2.1    -0.182317 =      -4.9611eV
 LUMO      2.2     0.009154 =       0.2491eV
 LUMO-HOMO         0.191471 =       5.2102eV


 **********************************************************************************************************************************
 DATASETS  * FILE   NREC   LENGTH (MB)   RECORD NAMES
              1      20      209.38       500      610      700      900      950      970     1000      129      960     1100   
                                          VAR    BASINP    GEOM    SYMINP    ZMAT    AOBASIS   BASIS     P2S    ABASIS      S 
                                         1400     1410     1420     1200     1210     1080     1600     1650     1300     1700   
                                           T        V       ECP      H0       H01     AOSYM     SMH    MOLCAS    ERIS     OPER   

              2       5        3.83       200      700     1000      520     2100   
                                        OPTIONS   GEOM     BASIS   MCVARS     RHF  

 PROGRAMS   *        TOTAL       RHF       INT
 CPU TIMES  *        22.10      1.76     20.24
 REAL TIME  *        24.09 SEC
 DISK USED  *       801.00 MB      
 **********************************************************************************************************************************
 SETTING SCF(1)         =       -47.57737989  AU                              
 SETTING _CC_NORM_MAX   =         2.00000000                                  


1PROGRAM * CCSD (Unrestricted open-shell coupled cluster)     Authors: C. Hampel, H.-J. Werner, 1991, M. Deegan, P.J. Knowles, 1992


 Convergence thresholds:  THRVAR = 1.00D-08  THRDEN = 1.00D-06

 CCSD(T)     terms to be evaluated (factor= 1.000)


 Number of closed-shell orbitals:   4 (   1   1   1   0   1   0   0   0 )
 Number of active  orbitals:        1 (   1   0   0   0   0   0   0   0 )
 Number of external orbitals:     242 (  55  39  39  19  39  19  19  13 )

 Memory could be reduced to 21.73 Mwords without degradation in triples

 Number of N-1 electron functions:               9
 Number of N-2 electron functions:              36
 Number of singly external CSFs:               402
 Number of doubly external CSFs:            219629
 Total number of CSFs:                      220031

 Molecular orbitals read from record     2100.2  Type=RHF/CANONICAL (state 1.1)

 Integral transformation finished. Total CPU:   0.72 sec, npass=  1  Memory used:   3.03 MW

 Starting RMP2 calculation

 ITER.      SQ.NORM     CORR.ENERGY   TOTAL ENERGY   ENERGY CHANGE        DEN1      VAR(S)    VAR(P)  DIIS     TIME
   1      1.02599349    -0.30610918   -47.88348907    -0.30610918    -0.00011326  0.74D-07  0.18D-04  1  1     0.74
   2      1.02603089    -0.30622516   -47.88360505    -0.00011598    -0.00000003  0.22D-09  0.96D-08  2  2     0.75
   3      1.02603148    -0.30622600   -47.88360589    -0.00000084    -0.00000000  0.35D-12  0.96D-11  3  3     0.76

 Norm of t1 vector:      0.00411246      S-energy:    -0.00003242      T1 diagnostic:  0.00001375
 Norm of t2 vector:      0.16129031      P-energy:    -0.30619359
                                         Alpha-Beta:  -0.23447897
                                         Alpha-Alpha: -0.03712375
                                         Beta-Beta:   -0.03459086

 Spin contamination <S**2-Sz**2-Sz>     0.00002316
  Reference energy                    -47.577379886891
  RHF-RMP2 correlation energy          -0.306226002695
 !RHF-RMP2 energy                     -47.883605889586

 Starting UCCSD calculation

 ITER.      SQ.NORM     CORR.ENERGY   TOTAL ENERGY   ENERGY CHANGE        DEN1      VAR(S)    VAR(P)  DIIS     TIME
   1      1.02646801    -0.30789494   -47.88527483    -0.30789494    -0.00218297  0.26D-03  0.15D-03  1  1     1.82
   2      1.02746569    -0.31003650   -47.88741639    -0.00214156    -0.00009887  0.49D-04  0.12D-04  2  2     2.84
   3      1.02787591    -0.31028115   -47.88766104    -0.00024465    -0.00001321  0.20D-04  0.37D-06  3  3     3.87
   4      1.02814958    -0.31036060   -47.88774049    -0.00007945    -0.00000302  0.61D-05  0.53D-07  4  4     4.89
   5      1.02832245    -0.31037976   -47.88775965    -0.00001916    -0.00000062  0.14D-05  0.10D-07  5  5     5.92
   6      1.02843975    -0.31039318   -47.88777307    -0.00001342    -0.00000005  0.13D-06  0.60D-09  6  6     6.95
   7      1.02846477    -0.31039479   -47.88777468    -0.00000161    -0.00000001  0.20D-07  0.62D-10  6  1     7.98
   8      1.02847253    -0.31039501   -47.88777490    -0.00000022    -0.00000000  0.19D-08  0.10D-10  6  2     8.99

 Norm of t1 vector:      0.03649218      S-energy:    -0.00004172      T1 diagnostic:  0.00850532
                                                                       D1 diagnostic:  0.02283700
 Norm of t2 vector:      0.16474482      P-energy:    -0.31035330
                                         Alpha-Beta:  -0.24174781
                                         Alpha-Alpha: -0.03576052
                                         Beta-Beta:   -0.03284497

 Spin contamination <S**2-Sz**2-Sz>     0.00007971

 Memory could be reduced to 22.49 Mwords without degradation in triples
 

 RESULTS
 =======

  Reference energy                    -47.577379886891
  UCCSD singles energy                 -0.000041716138
  UCCSD pair energy                    -0.310353298557
  UCCSD correlation energy             -0.310395014695
  Triples (T) contribution             -0.004444188196
  Total correlation energy             -0.314839202891
 
  RHF-UCCSD energy                    -47.887774901587
  RHF-UCCSD[T] energy                 -47.892306985809
  RHF-UCCSD-T energy                  -47.892174299453
 !RHF-UCCSD(T) energy                 -47.892219089782

 Program statistics:

 Available memory in ccsd:               511999650
 Min. memory needed in ccsd:                842321
 Max. memory used in ccsd:                 1080302
 Max. memory used in cckext:                929451 ( 8 integral passes)
 Max. memory used in cckint:               3031461 ( 1 integral passes)



 **********************************************************************************************************************************
 DATASETS  * FILE   NREC   LENGTH (MB)   RECORD NAMES
              1      20      209.38       500      610      700      900      950      970     1000      129      960     1100   
                                          VAR    BASINP    GEOM    SYMINP    ZMAT    AOBASIS   BASIS     P2S    ABASIS      S 
                                         1400     1410     1420     1200     1210     1080     1600     1650     1300     1700   
                                           T        V       ECP      H0       H01     AOSYM     SMH    MOLCAS    ERIS     OPER   

              2       5        3.83       200      700     1000      520     2100   
                                        OPTIONS   GEOM     BASIS   MCVARS     RHF  

 PROGRAMS   *        TOTAL  UCCSD(T)       RHF       INT
 CPU TIMES  *        37.07     14.97      1.76     20.24
 REAL TIME  *        40.18 SEC
 DISK USED  *       801.00 MB      
 **********************************************************************************************************************************
 SETTING CCSD(1)        =       -47.89221909  AU                              

 DO I                   =         2.00000000   

 Running procedure=IP

1PROGRAM * RHF-SCF (CLOSED SHELL)       Authors: W. Meyer, H.-J. Werner


 NUMBER OF ELECTRONS:       4+    4-    SPACE SYMMETRY=1    SPIN SYMMETRY: Singlet 
 CONVERGENCE THRESHOLDS:    1.00E-05 (Density)    1.00E-07 (Energy)
 MAX. NUMBER OF ITERATIONS:       60
 INTERPOLATION TYPE:            DIIS
 INTERPOLATION STEPS:              2 (START)      1 (STEP)
 LEVEL SHIFTS:                  0.00 (CLOSED)  0.00 (OPEN) 

 Number of closed-shell orbitals:    4 (   1   1   1   0   1   0   0   0 )


 Orbital guess generated from atomic densities. Full valence occupancy:    1   0   0   0   0   0   0   0


 Molecular orbital dump at record        2101.2

 ITERATION    DDIFF          GRAD             ENERGY        2-EL.EN.            DIPOLE MOMENTS         DIIS   ORB.
    1      0.000D+00      0.000D+00       -41.92001687     83.470567    0.00000    0.00000    0.00000    0    start
    2      0.000D+00      0.343D+00       -46.11085596     49.301287    0.00000    0.00000    0.00000    1    diag
    3      0.150D+01      0.134D+00       -47.37306261     62.090234    0.00000    0.00000    0.00000    2    diag
    4      0.272D+00      0.212D-01       -47.39507157     60.875870    0.00000    0.00000    0.00000    3    diag
    5      0.615D-01      0.142D-02       -47.39521166     60.814393    0.00000    0.00000    0.00000    4    diag
    6      0.886D-02      0.831D-04       -47.39521227     60.820949    0.00000    0.00000    0.00000    5    diag
    7      0.623D-03      0.321D-05       -47.39521227     60.820816    0.00000    0.00000    0.00000    6    diag
    8      0.159D-05      0.139D-06       -47.39521227     60.820802    0.00000    0.00000    0.00000    0    orth

 Final occupancy:   1   1   1   0   1   0   0   0

 !RHF STATE 1.1 Energy                -47.395212270949
 Nuclear energy                         0.00000000
 One-electron energy                  -77.80561335
 Two-electron energy                   30.41040108
 Virial quotient                       -1.22233801
 !RHF STATE 1.1 Dipole moment           0.00000000     0.00000000     0.00000000
 Dipole moment /Debye                   0.00000000     0.00000000     0.00000000

 Orbital energies:

         1.1          2.1          3.1
     -3.104268    -0.182024    -0.069998

         1.2          2.2          3.2
     -1.796046    -0.109439    -0.050300

         1.3          2.3          3.3
     -1.796046    -0.109439    -0.050300

         1.4          2.4
     -0.050694     0.032848

         1.5          2.5          3.5
     -1.796046    -0.109439    -0.050300

         1.6          2.6
     -0.050694     0.032848

         1.7          2.7
     -0.050694     0.032848

         1.8          2.8
      0.032687     0.285545

 HOMO      1.2    -1.796046 =     -48.8729eV
 LUMO      2.1    -0.182024 =      -4.9531eV
 LUMO-HOMO         1.614022 =      43.9198eV


 **********************************************************************************************************************************
 DATASETS  * FILE   NREC   LENGTH (MB)   RECORD NAMES
              1      20      209.38       500      610      700      900      950      970     1000      129      960     1100   
                                          VAR    BASINP    GEOM    SYMINP    ZMAT    AOBASIS   BASIS     P2S    ABASIS      S 
                                         1400     1410     1420     1200     1210     1080     1600     1650     1300     1700   
                                           T        V       ECP      H0       H01     AOSYM     SMH    MOLCAS    ERIS     OPER   

              2       6        6.62       200      700     1000      520     2100     2101   
                                        OPTIONS   GEOM     BASIS   MCVARS     RHF      RHF  

 PROGRAMS   *        TOTAL       RHF  UCCSD(T)       RHF       INT
 CPU TIMES  *        38.33      1.26     14.97      1.76     20.24
 REAL TIME  *        41.66 SEC
 DISK USED  *       801.00 MB      
 **********************************************************************************************************************************
 SETTING SCF(2)         =       -47.39521227  AU                              
 SETTING _CC_NORM_MAX   =         2.00000000                                  


1PROGRAM * CCSD (Unrestricted open-shell coupled cluster)     Authors: C. Hampel, H.-J. Werner, 1991, M. Deegan, P.J. Knowles, 1992


 Convergence thresholds:  THRVAR = 1.00D-08  THRDEN = 1.00D-06

 CCSD(T)     terms to be evaluated (factor= 1.000)


 Number of closed-shell orbitals:   4 (   1   1   1   0   1   0   0   0 )
 Number of external orbitals:     243 (  56  39  39  19  39  19  19  13 )

 Memory could be reduced to 20.12 Mwords without degradation in triples

 Number of N-1 electron functions:               8
 Number of N-2 electron functions:              28
 Number of singly external CSFs:               346
 Number of doubly external CSFs:            170540
 Total number of CSFs:                      170886

 Molecular orbitals read from record     2101.2  Type=RHF/CANONICAL (state 1.1)

 Integral transformation finished. Total CPU:   0.69 sec, npass=  1  Memory used:   2.62 MW

 Starting RMP2 calculation

 ITER.      SQ.NORM     CORR.ENERGY   TOTAL ENERGY   ENERGY CHANGE        DEN1      VAR(S)    VAR(P)  DIIS     TIME
   1      1.02446669    -0.30036152   -47.69557379    -0.30036152    -0.00010334  0.71D-16  0.14D-04  1  1     0.71
   2      1.02449658    -0.30046721   -47.69567948    -0.00010569    -0.00000002  0.70D-19  0.30D-08  2  2     0.71
   3      1.02449688    -0.30046779   -47.69568006    -0.00000058    -0.00000000  0.81D-22  0.64D-12  3  3     0.72

 Norm of t1 vector:      0.00000020      S-energy:    -0.00000000      T1 diagnostic:  0.00000005
 Norm of t2 vector:      0.15651479      P-energy:    -0.30046779
                                         Alpha-Beta:  -0.23144883
                                         Alpha-Alpha: -0.03450948
                                         Beta-Beta:   -0.03450948

 Spin contamination <S**2-Sz**2-Sz>     0.00000000
  Reference energy                    -47.395212270949
  RHF-RMP2 correlation energy          -0.300467787949
 !RHF-RMP2 energy                     -47.695680058899

 Starting UCCSD calculation

 ITER.      SQ.NORM     CORR.ENERGY   TOTAL ENERGY   ENERGY CHANGE        DEN1      VAR(S)    VAR(P)  DIIS     TIME
   1      1.02467881    -0.30225582   -47.69746809    -0.30225582    -0.00191175  0.11D-03  0.11D-03  1  1     1.65
   2      1.02524610    -0.30413116   -47.69934343    -0.00187534    -0.00005340  0.15D-05  0.67D-05  2  2     2.59
   3      1.02534094    -0.30428554   -47.69949781    -0.00015438    -0.00000185  0.35D-06  0.13D-06  3  3     3.50
   4      1.02536331    -0.30431085   -47.69952312    -0.00002531    -0.00000005  0.15D-08  0.77D-08  4  4     4.43
   5      1.02536435    -0.30431064   -47.69952292     0.00000020    -0.00000000  0.62D-09  0.14D-09  5  5     5.35

 Norm of t1 vector:      0.01330090      S-energy:    -0.00000000      T1 diagnostic:  0.00332523
                                                                       D1 diagnostic:  0.00508487
 Norm of t2 vector:      0.15870550      P-energy:    -0.30431064
                                         Alpha-Beta:  -0.23862547
                                         Alpha-Alpha: -0.03284259
                                         Beta-Beta:   -0.03284259

 Spin contamination <S**2-Sz**2-Sz>     0.00000000

 Memory could be reduced to 20.20 Mwords without degradation in triples
 

 RESULTS
 =======

  Reference energy                    -47.395212270949
  UCCSD singles energy                 -0.000000001988
  UCCSD pair energy                    -0.304310642260
  UCCSD correlation energy             -0.304310644248
  Triples (T) contribution             -0.004042161533
  Total correlation energy             -0.308352805781
 
  RHF-UCCSD energy                    -47.699522915197
  RHF-UCCSD[T] energy                 -47.703638607038
  RHF-UCCSD-T energy                  -47.703528173862
 !RHF-UCCSD(T) energy                 -47.703565076730

 Program statistics:

 Available memory in ccsd:               511999732
 Min. memory needed in ccsd:                699484
 Max. memory used in ccsd:                  881118
 Max. memory used in cckext:                791465 ( 5 integral passes)
 Max. memory used in cckint:               2623201 ( 1 integral passes)



 **********************************************************************************************************************************
 DATASETS  * FILE   NREC   LENGTH (MB)   RECORD NAMES
              1      20      209.38       500      610      700      900      950      970     1000      129      960     1100   
                                          VAR    BASINP    GEOM    SYMINP    ZMAT    AOBASIS   BASIS     P2S    ABASIS      S 
                                         1400     1410     1420     1200     1210     1080     1600     1650     1300     1700   
                                           T        V       ECP      H0       H01     AOSYM     SMH    MOLCAS    ERIS     OPER   

              2       6        6.62       200      700     1000      520     2100     2101   
                                        OPTIONS   GEOM     BASIS   MCVARS     RHF      RHF  

 PROGRAMS   *        TOTAL  UCCSD(T)       RHF  UCCSD(T)       RHF       INT
 CPU TIMES  *        47.86      9.53      1.26     14.97      1.76     20.24
 REAL TIME  *        51.94 SEC
 DISK USED  *       801.00 MB      
 **********************************************************************************************************************************
 SETTING CCSD(2)        =       -47.70356508  AU                              

 DO I                   =         3.00000000   

 Running procedure=EA

1PROGRAM * RHF-SCF (CLOSED SHELL)       Authors: W. Meyer, H.-J. Werner


 NUMBER OF ELECTRONS:       5+    5-    SPACE SYMMETRY=1    SPIN SYMMETRY: Singlet 
 CONVERGENCE THRESHOLDS:    1.00E-05 (Density)    1.00E-07 (Energy)
 MAX. NUMBER OF ITERATIONS:       60
 INTERPOLATION TYPE:            DIIS
 INTERPOLATION STEPS:              2 (START)      1 (STEP)
 LEVEL SHIFTS:                  0.00 (CLOSED)  0.00 (OPEN) 

 Number of closed-shell orbitals:    5 (   2   1   1   0   1   0   0   0 )


 Orbital guess generated from atomic densities. Full valence occupancy:    1   0   0   0   0   0   0   0


 Molecular orbital dump at record        2102.2

 ITERATION    DDIFF          GRAD             ENERGY        2-EL.EN.            DIPOLE MOMENTS         DIIS   ORB.
    1      0.000D+00      0.000D+00       -38.34306269    109.443412    0.00000    0.00000    0.00000    0    start
    2      0.000D+00      0.335D+00       -20.03982114      6.379993    0.00000    0.00000    0.00000    1    diag
    3      0.334D+01      0.156D+00       -42.93714969     98.415958    0.00000    0.00000    0.00000    2    diag
    4      0.415D+02      0.216D+00       -46.00742373     86.593782    0.00000    0.00000    0.00000    3    diag
    5      0.147D+03      0.110D+00       -47.24621600     77.019849    0.00000    0.00000    0.00000    4    diag
    6      0.165D+03      0.402D-01       -47.53328177     71.075983    0.00000    0.00000    0.00000    5    diag
    7      0.334D+02      0.777D-02       -47.56945768     68.768097    0.00000    0.00000    0.00000    6    diag
    8      0.255D+00      0.972D-03       -47.57314448     68.162009    0.00000    0.00000    0.00000    7    diag
    9      0.776D-01      0.290D-03       -47.57354911     67.983621    0.00000    0.00000    0.00000    8    diag
   10      0.112D-01      0.130D-03       -47.57359064     67.930453    0.00000    0.00000    0.00000    9    orth
   11      0.221D-02      0.238D-04       -47.57359451     67.919722    0.00000    0.00000    0.00000    9    diag
   12      0.272D-02      0.144D-04       -47.57359471     67.920263    0.00000    0.00000    0.00000    9    diag
   13      0.572D-03      0.299D-05       -47.57359472     67.919186    0.00000    0.00000    0.00000    9    diag
   14      0.190D-03      0.757D-07       -47.57359472     67.919262    0.00000    0.00000    0.00000    9    diag
   15      0.122D-05      0.799D-08       -47.57359472     67.919257    0.00000    0.00000    0.00000    0    orth

 Final occupancy:   2   1   1   0   1   0   0   0

 !RHF STATE 1.1 Energy                -47.573594720544
 Nuclear energy                         0.00000000
 One-electron energy                  -81.53322334
 Two-electron energy                   33.95962862
 Virial quotient                       -1.22469381
 !RHF STATE 1.1 Dipole moment           0.00000000     0.00000000     0.00000000
 Dipole moment /Debye                   0.00000000     0.00000000     0.00000000

 Orbital energies:

         1.1          2.1          3.1          4.1
     -2.681115    -0.013323     0.077935     0.155683

         1.2          2.2          3.2
     -1.370848     0.068864     0.121010

         1.3          2.3          3.3
     -1.370848     0.068864     0.121010

         1.4          2.4
      0.155683     0.292713

         1.5          2.5          3.5
     -1.370848     0.068864     0.121010

         1.6          2.6
      0.155683     0.292713

         1.7          2.7
      0.155683     0.292713

         1.8          2.8
      0.275564     0.599379

 HOMO      2.1    -0.013323 =      -0.3625eV
 LUMO      2.2     0.068864 =       1.8739eV
 LUMO-HOMO         0.082187 =       2.2364eV


 **********************************************************************************************************************************
 DATASETS  * FILE   NREC   LENGTH (MB)   RECORD NAMES
              1      20      209.38       500      610      700      900      950      970     1000      129      960     1100   
                                          VAR    BASINP    GEOM    SYMINP    ZMAT    AOBASIS   BASIS     P2S    ABASIS      S 
                                         1400     1410     1420     1200     1210     1080     1600     1650     1300     1700   
                                           T        V       ECP      H0       H01     AOSYM     SMH    MOLCAS    ERIS     OPER   

              2       7        9.50       200      700     1000      520     2100     2101     2102   
                                        OPTIONS   GEOM     BASIS   MCVARS     RHF      RHF      RHF  

 PROGRAMS   *        TOTAL       RHF  UCCSD(T)       RHF  UCCSD(T)       RHF       INT
 CPU TIMES  *        50.03      2.17      9.53      1.26     14.97      1.76     20.24
 REAL TIME  *        54.48 SEC
 DISK USED  *       801.00 MB      
 **********************************************************************************************************************************
 SETTING SCF(3)         =       -47.57359472  AU                              
 SETTING _CC_NORM_MAX   =         2.00000000                                  


1PROGRAM * CCSD (Unrestricted open-shell coupled cluster)     Authors: C. Hampel, H.-J. Werner, 1991, M. Deegan, P.J. Knowles, 1992


 Convergence thresholds:  THRVAR = 1.00D-08  THRDEN = 1.00D-06

 CCSD(T)     terms to be evaluated (factor= 1.000)


 Number of closed-shell orbitals:   5 (   2   1   1   0   1   0   0   0 )
 Number of external orbitals:     242 (  55  39  39  19  39  19  19  13 )

 Memory could be reduced to 22.03 Mwords without degradation in triples

 Number of N-1 electron functions:              10
 Number of N-2 electron functions:              45
 Number of singly external CSFs:               454
 Number of doubly external CSFs:            275129
 Total number of CSFs:                      275583

 Molecular orbitals read from record     2102.2  Type=RHF/CANONICAL (state 1.1)

 Integral transformation finished. Total CPU:   0.88 sec, npass=  1  Memory used:   3.03 MW

 Starting RMP2 calculation

 ITER.      SQ.NORM     CORR.ENERGY   TOTAL ENERGY   ENERGY CHANGE        DEN1      VAR(S)    VAR(P)  DIIS     TIME
   1      1.05671532    -0.32152041   -47.89511513    -0.32152041    -0.00125819  0.34D-13  0.20D-02  1  1     0.89
   2      1.06332807    -0.32292565   -47.89652037    -0.00140524    -0.00009932  0.11D-13  0.20D-03  2  2     0.90
   3      1.06641625    -0.32341943   -47.89701415    -0.00049378    -0.00000202  0.20D-14  0.43D-05  3  3     0.91
   4      1.06666080    -0.32343688   -47.89703160    -0.00001745    -0.00000008  0.34D-15  0.17D-06  4  4     0.92
   5      1.06668284    -0.32343780   -47.89703252    -0.00000091    -0.00000000  0.56D-16  0.83D-08  5  5     0.93

 Norm of t1 vector:      0.00000077      S-energy:    -0.00000000      T1 diagnostic:  0.00000017
 Norm of t2 vector:      0.25823021      P-energy:    -0.32343780
                                         Alpha-Beta:  -0.25143125
                                         Alpha-Alpha: -0.03600328
                                         Beta-Beta:   -0.03600328

 Spin contamination <S**2-Sz**2-Sz>     0.00000000
  Reference energy                    -47.573594720544
  RHF-RMP2 correlation energy          -0.323437797682
 !RHF-RMP2 energy                     -47.897032518226

 Starting UCCSD calculation

 ITER.      SQ.NORM     CORR.ENERGY   TOTAL ENERGY   ENERGY CHANGE        DEN1      VAR(S)    VAR(P)  DIIS     TIME
   1      1.06264726    -0.32331573   -47.89691045    -0.32331573    -0.00474981  0.10D-02  0.42D-02  1  1     1.92
   2      1.08291059    -0.32808173   -47.90167645    -0.00476600    -0.00118537  0.47D-03  0.17D-02  2  2     2.89
   3      1.10382063    -0.33040669   -47.90400141    -0.00232495    -0.00041128  0.24D-03  0.59D-03  3  3     3.86
   4      1.13094682    -0.33259562   -47.90619034    -0.00218893    -0.00006383  0.51D-04  0.80D-04  4  4     4.83
   5      1.14221522    -0.33322491   -47.90681963    -0.00062929    -0.00001372  0.16D-04  0.16D-04  5  5     5.79
   6      1.14611597    -0.33338939   -47.90698411    -0.00016448    -0.00000516  0.81D-05  0.59D-05  6  6     6.76
   7      1.14806105    -0.33342628   -47.90702100    -0.00003689    -0.00000196  0.39D-05  0.20D-05  6  1     7.73
   8      1.14933984    -0.33344294   -47.90703766    -0.00001666    -0.00000075  0.16D-05  0.68D-06  6  2     8.71
   9      1.15035660    -0.33346001   -47.90705473    -0.00001707    -0.00000018  0.37D-06  0.15D-06  6  3     9.68
  10      1.15081712    -0.33346470   -47.90705942    -0.00000468    -0.00000005  0.82D-07  0.53D-07  6  4    10.65
  11      1.15099440    -0.33346612   -47.90706084    -0.00000142    -0.00000002  0.17D-07  0.24D-07  6  5    11.64
  12      1.15104328    -0.33346511   -47.90705983     0.00000101    -0.00000000  0.25D-08  0.64D-08  6  6    12.69
  13      1.15106301    -0.33346466   -47.90705938     0.00000044    -0.00000000  0.22D-09  0.12D-08  6  1    13.72

 Norm of t1 vector:      0.14097426      S-energy:     0.00000001      T1 diagnostic:  0.03152280
                                                                       D1 diagnostic:  0.09900145
 Norm of t2 vector:      0.36220059      P-energy:    -0.33346467
                                         Alpha-Beta:  -0.26460868
                                         Alpha-Alpha: -0.03442799
                                         Beta-Beta:   -0.03442799

 Singles amplitudes (print threshold =  0.500E-01):

         I         SYM. A    A   T(IA) [Alpha-Alpha]

         2         1         1     -0.08201431
         2         1         4      0.05261914
 
         I         SYM. A    A   T(IA) [Beta-Beta]

         2         1         1     -0.08201431
         2         1         4      0.05261914

 Doubles amplitudes (print threshold =  0.500E-01):

         I         J         SYM. A    SYM. B    A         B      T(IJ, AB) [Alpha-Beta]

         2         2         1         1         1         4      0.05010429
         2         2         1         1         4         1      0.05010429
         2         2         1         1         4         4     -0.06830449
         2         2         2         2         2         2     -0.08157750
         2         2         2         2         2         3     -0.07834052
         2         2         2         2         3         2     -0.07834052
         2         2         2         2         3         3     -0.07826286
         2         2         3         3         2         2     -0.08157750
         2         2         3         3         2         3     -0.07834052
         2         2         3         3         3         2     -0.07834052
         2         2         3         3         3         3     -0.07826286
         2         2         5         5         2         2     -0.08157750
         2         2         5         5         2         3     -0.07834052
         2         2         5         5         3         2     -0.07834052
         2         2         5         5         3         3     -0.07826286

 Spin contamination <S**2-Sz**2-Sz>     0.00000000

 Memory could be reduced to 22.38 Mwords without degradation in triples
 

 RESULTS
 =======

  Reference energy                    -47.573594720544
  UCCSD singles energy                  0.000000008930
  UCCSD pair energy                    -0.333464672182
  UCCSD correlation energy             -0.333464663252
  Triples (T) contribution             -0.005288532736
  Total correlation energy             -0.338753195988
 
  RHF-UCCSD energy                    -47.907059383796
  RHF-UCCSD[T] energy                 -47.912536293010
  RHF-UCCSD-T energy                  -47.912275482699
 !RHF-UCCSD(T) energy                 -47.912347916533

 Program statistics:

 Available memory in ccsd:               511999650
 Min. memory needed in ccsd:                983358
 Max. memory used in ccsd:                 1292708
 Max. memory used in cckext:               1084287 (13 integral passes)
 Max. memory used in cckint:               3025819 ( 1 integral passes)



 **********************************************************************************************************************************
 DATASETS  * FILE   NREC   LENGTH (MB)   RECORD NAMES
              1      20      209.38       500      610      700      900      950      970     1000      129      960     1100   
                                          VAR    BASINP    GEOM    SYMINP    ZMAT    AOBASIS   BASIS     P2S    ABASIS      S 
                                         1400     1410     1420     1200     1210     1080     1600     1650     1300     1700   
                                           T        V       ECP      H0       H01     AOSYM     SMH    MOLCAS    ERIS     OPER   

              2       7        9.50       200      700     1000      520     2100     2101     2102   
                                        OPTIONS   GEOM     BASIS   MCVARS     RHF      RHF      RHF  

 PROGRAMS   *        TOTAL  UCCSD(T)       RHF  UCCSD(T)       RHF  UCCSD(T)       RHF       INT
 CPU TIMES  *        72.14     22.10      2.17      9.53      1.26     14.97      1.76     20.24
 REAL TIME  *        78.16 SEC
 DISK USED  *       801.00 MB      
 **********************************************************************************************************************************
 SETTING CCSD(3)        =       -47.91234792  AU                              
 Output type csv         
                                                                                                                                                                                                                                                                

       SCF,CCSD
   -47.57737989,   -47.89221909
   -47.39521227,   -47.70356508
   -47.57359472,   -47.91234792
                                                  

        UCCSD(T)        RHF-SCF         UCCSD(T)        RHF-SCF         UCCSD(T)        RHF-SCF 
    -47.91234792    -47.57359472    -47.70356508    -47.39521227    -47.89221909    -47.57737989
 **********************************************************************************************************************************
 Variable memory released
