
 Primary working directories    : /tmp/cmelton
 Secondary working directories  : /tmp/cmelton
 Wavefunction directory         : /remote/cmelton/wfu/
 Main file repository           : /tmp/cmelton/

 SHA1      : 4c1979699e6aeda0524d0210415ba82a958648b0
 NAME      : 2012.1.39
 ARCHNAME  : Linux/x86_64
 FC        : /projects/sems/install/rhel6-x86_64/sems/compiler/intel/16.0.1/base/bin/ifort
 FCVERSION : 16.0.1
 BLASLIB   : -L/projects/sems/install/rhel6-x86_64/sems/compiler/intel/16.0.1/base/compilers_and_libraries_2016.1.150/linux/mkl/lib/intel64 -lmkl_intel_ilp64 -lmkl_sequential -lmkl_core
 id        : sandiacon

 Nodes             nprocs
 s989256.sandia.gov    1

 Using customized tuning parameters: mindgm=7; mindgv=16; mindgc=1; mindgr=1; noblas=0; minvec=7
 default implementation of scratch files=df  

 ***,Calculation for Be atom, singlet and triplet
 memory,512,m
 gthresh,twoint=1.0E-12
 geometry={
 1
 Si
 Si  0.0 0.0 0.0
 }
 
 basis={
 ecp,Si,10,2,0
 3
   1  ,  3.54632218 ,   4.00000000
   3  ,  4.10257346 ,  14.18528871
   2  ,  3.03189783 , -14.55031990
 2
   2  ,  7.40540967 ,   6.03326125
   2  ,  2.38741220 ,  23.08201380
 2
   2  ,  2.17523625 ,   3.34088948
   2  ,  1.94078734 ,  10.10971550
 Including file /remote/cmelton/data/corrECP/2nd_row/aug-cc-pV5Z.basis
 }
 
 Including file /remote/cmelton/data/corrECP/2nd_row/Si/Ne-core/states.proc
 
 do i=1,5
 if (i.eq.1) then
     GS
 else if (i.eq.2) then
     IP1
 else if (i.eq.3) then
     IP2
 else if (i.eq.4) then
     IP3
 else if (i.eq.5) then
     EA
 endif
 scf(i)=energy
 _CC_NORM_MAX=2.0
 {uccsd(t),maxit=400;core}
 ccsd(i)=energy
 enddo
 
 table,scf,ccsd
 save
 type,csv

 Variables initialized (782), CPU time= 0.01 sec
 Commands  initialized (547), CPU time= 0.01 sec, 517 directives.
 Default parameters read. Elapsed time= 0.21 sec

 Checking input...
 Passed
1


                                         ***  PROGRAM SYSTEM MOLPRO  ***
                         Copyright, University College Cardiff Consultants Limited, 2008

                                    Version 2012.1 linked Aug  2 2016 14:07:26


 **********************************************************************************************************************************
 LABEL *   Calculation for Be atom, singlet and triplet                                  
 Linux-3.10.0-693.21.1.el7.x86_64/s989256.sandia.gov(x86_64) 64 bit serial version       DATE: 26-Apr-18          TIME: 15:25:58  
 **********************************************************************************************************************************

 SHA1:             4c1979699e6aeda0524d0210415ba82a958648b0
 **********************************************************************************************************************************

 THRESHOLDS:

 ZERO    =  1.00D-12  ONEINT  =  1.00D-12  TWOINT  =  1.00D-12  PREFAC  =  1.00D-14  LOCALI  =  1.00D-09  EORDER  =  1.00D-04
 ENERGY  =  0.00D+00  ETEST   =  0.00D+00  EDENS   =  0.00D+00  THRDEDEF=  1.00D-06  GRADIENT=  1.00D-02  STEP    =  1.00D-03
 ORBITAL =  1.00D-05  CIVEC   =  1.00D-05  COEFF   =  1.00D-04  PRINTCI =  5.00D-02  PUNCHCI =  9.90D+01  OPTGRAD =  3.00D-04
 OPTENERG=  1.00D-06  OPTSTEP =  3.00D-04  THRGRAD =  1.00D-10  COMPRESS=  1.00D-11  VARMIN  =  1.00D-07  VARMAX  =  1.00D-03
 THRDOUB =  0.00D+00  THRDIV  =  1.00D-05  THRRED  =  1.00D-07  THRPSP  =  1.00D+00  THRDC   =  1.00D-10  THRCS   =  1.00D-10
 THRNRM  =  1.00D-08  THREQ   =  0.00D+00  THRDE   =  1.00D+00  THRREF  =  1.00D-05  SPARFAC =  1.00D+00  THRDLP  =  1.00D-07
 THRDIA  =  1.00D-10  THRDLS  =  1.00D-07  THRGPS  =  0.00D+00  THRKEX  =  0.00D+00  THRDIS  =  2.00D-01  THRVAR  =  1.00D-10
 THRLOC  =  1.00D-06  THRGAP  =  1.00D-06  THRLOCT = -1.00D+00  THRGAPT = -1.00D+00  THRORB  =  1.00D-06  THRMLTP =  0.00D+00
 THRCPQCI=  1.00D-10  KEXTA   =  0.00D+00  THRCOARS=  0.00D+00  SYMTOL  =  1.00D-06  GRADTOL =  1.00D-06  THROVL  =  1.00D-08
 THRORTH =  1.00D-08  GRID    =  1.00D-06  GRIDMAX =  1.00D-03  DTMAX   =  0.00D+00  THROCCDE=  1.00D-01  THROCCDE=  1.00D-01



Geometry recognized as XYZ


 Variable memory set to  512000000 words,  buffer space   230000 words

 SETTING BASIS          =    USERDEF

 DO I                   =         1.00000000   

 Running procedure=GS


 Recomputing integrals since basis changed


 Using spherical harmonics


1PROGRAM * SEWARD (Integral evaluation for generally contracted gaussian basis sets)     Author: Roland Lindh, 1990

 Geometry written to block  1 of record 700

 Orientation using atomic masses  
 Molecule type: Atom
 Symmetry elements: X,Y,Z
 Rotational constants:       0.0000000      0.0000000      0.0000000 GHz  (calculated with average atomic masses)

 Point group  D2h 



 ATOMIC COORDINATES

 NR  ATOM    CHARGE       X              Y              Z

   1  SI      4.00    0.000000000    0.000000000    0.000000000

 NUCLEAR CHARGE:                    4
 NUMBER OF PRIMITIVE AOS:         217
 NUMBER OF SYMMETRY AOS:          162
 NUMBER OF CONTRACTIONS:          162   (  40Ag  +  27B3u +  27B2u +  11B1g +  27B1u +  11B2g +  11B3g +   8Au  )
 NUMBER OF CORE ORBITALS:           0   (   0Ag  +   0B3u +   0B2u +   0B1g +   0B1u +   0B2g +   0B3g +   0Au  )
 NUMBER OF VALENCE ORBITALS:        4   (   1Ag  +   1B3u +   1B2u +   0B1g +   1B1u +   0B2g +   0B3g +   0Au  )


 NUCLEAR REPULSION ENERGY    0.00000000

 EXTRA SYMMETRY OF AOS IN SYMMETRY 1:   1 1 1 1 1 1 1 1 1 1   1 1 1 1 1 1 1 1 1 1   1 2 3 2 3 2 3 2 3 2   3 4 5 6 4 5 6 4 5 6
 EXTRA SYMMETRY OF AOS IN SYMMETRY 2:   1 1 1 1 1 1 1 1 1 1   1 1 1 2 3 2 3 2 3 2   3 4 5 6 4 5 6
 EXTRA SYMMETRY OF AOS IN SYMMETRY 3:   1 1 1 1 1 1 1 1 1 1   1 1 1 2 3 2 3 2 3 2   3 4 5 6 4 5 6
 EXTRA SYMMETRY OF AOS IN SYMMETRY 4:   1 1 1 1 1 2 3 2 3 2   3
 EXTRA SYMMETRY OF AOS IN SYMMETRY 5:   1 1 1 1 1 1 1 1 1 1   1 1 1 2 3 2 3 2 3 2   3 4 5 6 4 5 6
 EXTRA SYMMETRY OF AOS IN SYMMETRY 6:   1 1 1 1 1 2 3 2 3 2   3
 EXTRA SYMMETRY OF AOS IN SYMMETRY 7:   1 1 1 1 1 2 3 2 3 2   3
 EXTRA SYMMETRY OF AOS IN SYMMETRY 8:   1 1 1 1 2 3 2 3

 Eigenvalues of metric

         1 0.286E-03 0.828E-03 0.218E-02 0.430E-02 0.784E-02 0.144E-01 0.263E-01 0.454E-01
         2 0.488E-02 0.164E-01 0.360E-01 0.521E-01 0.521E-01 0.727E-01 0.144E+00 0.244E+00
         3 0.488E-02 0.164E-01 0.360E-01 0.521E-01 0.521E-01 0.727E-01 0.144E+00 0.244E+00
         4 0.666E-01 0.156E+00 0.156E+00 0.240E+00 0.673E+00 0.775E+00 0.775E+00 0.149E+01
         5 0.488E-02 0.164E-01 0.360E-01 0.521E-01 0.521E-01 0.727E-01 0.144E+00 0.244E+00
         6 0.666E-01 0.156E+00 0.156E+00 0.240E+00 0.673E+00 0.775E+00 0.775E+00 0.149E+01
         7 0.666E-01 0.156E+00 0.156E+00 0.240E+00 0.673E+00 0.775E+00 0.775E+00 0.149E+01
         8 0.521E-01 0.244E+00 0.244E+00 0.326E+00 0.109E+01 0.176E+01 0.176E+01 0.253E+01


 Contracted 2-electron integrals neglected if value below      1.0D-12
 AO integral compression algorithm  1   Integral accuracy      1.0D-12

     52.691 MB (compressed) written to integral file ( 39.4%)


 NUMBER OF SORTED TWO-ELECTRON INTEGRALS:   11470111.     BUFFER LENGTH:  32768
 NUMBER OF SEGMENTS:   1  SEGMENT LENGTH:   11470111      RECORD LENGTH: 524288

 Memory used in sort:      12.03 MW

 SORT1 READ    16733630. AND WROTE     5944511. INTEGRALS IN     18 RECORDS. CPU TIME:     0.34 SEC, REAL TIME:     0.39 SEC
 SORT2 READ     5944511. AND WROTE    11470111. INTEGRALS IN    201 RECORDS. CPU TIME:     0.25 SEC, REAL TIME:     0.29 SEC

 FILE SIZES:   FILE 1:    60.9 MBYTE,  FILE 4:    75.5 MBYTE,   TOTAL:    136.4 MBYTE

 OPERATOR DM      FOR CENTER  0  COORDINATES:    0.000000    0.000000    0.000000


 **********************************************************************************************************************************
 DATASETS  * FILE   NREC   LENGTH (MB)   RECORD NAMES
              1      20       38.50       500      610      700      900      950      970     1000      129      960     1100   
                                          VAR    BASINP    GEOM    SYMINP    ZMAT    AOBASIS   BASIS     P2S    ABASIS      S 
                                         1400     1410     1420     1200     1210     1080     1600     1650     1300     1700   
                                           T        V       ECP      H0       H01     AOSYM     SMH    MOLCAS    ERIS     OPER   

 PROGRAMS   *        TOTAL       INT
 CPU TIMES  *         3.99      3.82
 REAL TIME  *         4.85 SEC
 DISK USED  *       138.01 MB      
 **********************************************************************************************************************************

1PROGRAM * RHF-SCF (OPEN SHELL)       Authors: W. Meyer, H.-J. Werner


 NUMBER OF ELECTRONS:       3+    1-    SPACE SYMMETRY=4    SPIN SYMMETRY: Triplet 
 CONVERGENCE THRESHOLDS:    1.00E-05 (Density)    1.00E-07 (Energy)
 MAX. NUMBER OF ITERATIONS:       60
 INTERPOLATION TYPE:            DIIS
 INTERPOLATION STEPS:              2 (START)      1 (STEP)
 LEVEL SHIFTS:                 -0.30 (CLOSED)  0.00 (OPEN) 


 Singly occupied orbitals:      1.2       1.3
 Orbital guess generated from atomic densities. Full valence occupancy:    1   1   1   0   1   0   0   0


 Molecular orbital dump at record        4202.2

 ITERATION    DDIFF          GRAD             ENERGY        2-EL.EN.            DIPOLE MOMENTS         DIIS   ORB.
    1      0.000D+00      0.000D+00        -3.65304974      3.760207    0.00000    0.00000    0.00000    0    start
    2      0.000D+00      0.398D-02        -3.66438294      3.933004    0.00000    0.00000    0.00000    1    diag,B
    3      0.296D-02      0.104D-02        -3.66544550      3.975202    0.00000    0.00000    0.00000    2    diag,B
    4      0.111D-02      0.456D-03        -3.66556583      3.984727    0.00000    0.00000    0.00000    3    diag,B
    5      0.656D-03      0.818D-04        -3.66556793      3.983822    0.00000    0.00000    0.00000    4    diag,B
    6      0.160D-03      0.146D-04        -3.66556800      3.983902    0.00000    0.00000    0.00000    5    diag,B
    7      0.474D-04      0.307D-05        -3.66556801      3.983824    0.00000    0.00000    0.00000    6    fixocc
    8      0.349D-05      0.791D-06        -3.66556801      3.983831    0.00000    0.00000    0.00000    0    orth

 Final alpha occupancy:   1   1   1   0   0   0   0   0
 Final beta  occupancy:   1   0   0   0   0   0   0   0

 !RHF STATE 1.4 Energy                 -3.665568007197
 Nuclear energy                         0.00000000
 One-electron energy                   -5.65748333
 Two-electron energy                    1.99191533
 Virial quotient                       -2.77875538
 !RHF STATE 1.4 Dipole moment           0.00000000     0.00000000     0.00000000
 Dipole moment /Debye                   0.00000000     0.00000000     0.00000000

 Orbital energies:

         1.1          2.1          3.1
     -0.539834     0.046428     0.128765

         1.2          2.2          3.2
     -0.296994     0.050916     0.247770

         1.3          2.3          3.3
     -0.296994     0.050916     0.247770

         1.4          2.4
      0.128765     0.350720

         1.5          2.5
     -0.017654     0.056589

         1.6          2.6
      0.129229     0.361033

         1.7          2.7
      0.129229     0.361033

         1.8          2.8
      0.285111     0.760473

 HOMO      1.2    -0.296994 =      -8.0816eV
 LUMO      1.5    -0.017654 =      -0.4804eV
 LUMO-HOMO         0.279340 =       7.6012eV


 **********************************************************************************************************************************
 DATASETS  * FILE   NREC   LENGTH (MB)   RECORD NAMES
              1      20       38.50       500      610      700      900      950      970     1000      129      960     1100   
                                          VAR    BASINP    GEOM    SYMINP    ZMAT    AOBASIS   BASIS     P2S    ABASIS      S 
                                         1400     1410     1420     1200     1210     1080     1600     1650     1300     1700   
                                           T        V       ECP      H0       H01     AOSYM     SMH    MOLCAS    ERIS     OPER   

              2       5        4.19       200      700     1000      520     4202   
                                        OPTIONS   GEOM     BASIS   MCVARS     RHF  

 PROGRAMS   *        TOTAL       RHF       INT
 CPU TIMES  *         4.31      0.32      3.82
 REAL TIME  *         5.27 SEC
 DISK USED  *       138.01 MB      
 **********************************************************************************************************************************

1PROGRAM * MULTI (Direct Multiconfiguration SCF)       Authors: P.J. Knowles, H.-J. Werner (1984)     S.T. Elbert (1988)


 Number of closed-shell orbitals:   1 (   1   0   0   0   0   0   0   0 )
 Number of active  orbitals:        3 (   0   1   1   0   1   0   0   0 )
 Number of external orbitals:     158 (  39  26  26  11  26  11  11   8 )

 State symmetry 1

 Number of electrons:     2    Spin symmetry=Triplet   Space symmetry=4
 Number of states:        1
 Number of CSFs:          1   (1 determinants, 3 intermediate states)

 State symmetry 2

 Number of electrons:     2    Spin symmetry=Triplet   Space symmetry=6
 Number of states:        1
 Number of CSFs:          1   (1 determinants, 3 intermediate states)

 State symmetry 3

 Number of electrons:     2    Spin symmetry=Triplet   Space symmetry=7
 Number of states:        1
 Number of CSFs:          1   (1 determinants, 3 intermediate states)

 Molecular orbitals read from record     4202.2  Type=RHF/CANONICAL (state 1.4)
 *** IN SYMMETRY 1 ORBITAL  1 SYMMETRY CONTAMINATION OF 0.682D-02 HAS BEEN REMOVED

 EXTRA SYMMETRY OF MOS IN SYMMETRY 1:   1 1 3 2 1 3 2 4 6 5   2 3 1 4 6 5 2 3 1 4   6 5 2 3 1 1 1 1 1 1   1 1 1 1 1 1 1 1 1 1
 *** IN SYMMETRY 2 ORBITAL  1 SYMMETRY CONTAMINATION OF 0.189D-03 HAS BEEN REMOVED
 EXTRA SYMMETRY OF MOS IN SYMMETRY 2:   1 1 1 2 3 2 3 1 2 3   4 5 6 1 2 3 4 5 6 1   1 1 1 1 1 1 1
 *** IN SYMMETRY 3 ORBITAL  1 SYMMETRY CONTAMINATION OF 0.189D-03 HAS BEEN REMOVED
 EXTRA SYMMETRY OF MOS IN SYMMETRY 3:   1 1 1 2 3 2 3 1 2 3   4 5 6 1 2 3 4 5 6 1   1 1 1 1 1 1 1
 EXTRA SYMMETRY OF MOS IN SYMMETRY 4:   1 1 2 3 1 2 3 1 2 3   1
 *** IN SYMMETRY 5 ORBITAL  1 SYMMETRY CONTAMINATION OF 0.570D-02 HAS BEEN REMOVED
 EXTRA SYMMETRY OF MOS IN SYMMETRY 5:   1 1 1 2 3 2 3 1 2 3   6 4 5 1 2 3 6 4 5 1   1 1 1 1 1 1 1
 EXTRA SYMMETRY OF MOS IN SYMMETRY 6:   1 1 2 3 1 2 3 1 2 3   1
 EXTRA SYMMETRY OF MOS IN SYMMETRY 7:   1 1 2 3 1 2 3 1 2 3   1
 EXTRA SYMMETRY OF MOS IN SYMMETRY 8:   1 1 1 3 2 1 3 2

 Wavefunction dump at record             5202.2

 Convergence thresholds  0.10E-01 (gradient)  0.10E-05 (energy)  0.10E-02 (step length)

 Weight factors for state symmetry  1:    0.33333
 Weight factors for state symmetry  2:    0.33333
 Weight factors for state symmetry  3:    0.33333

 Number of orbital rotations:      117   (     0 Core/Active     39 Core/Virtual   0 Active/Active     78 Active/Virtual)
 Total number of variables:        120


 ITER. MIC  NCI  NEG     ENERGY(VAR)     ENERGY(PROJ)   ENERGY CHANGE     GRAD(0)  GRAD(ORB)   GRAD(CI)     STEP       TIME

   1   21   12    0      -3.64758920      -3.66550251   -0.01791331    0.05665114 0.00000000 0.00000000  0.34D+00      0.13
   2   15   12    0      -3.66548333      -3.66549301   -0.00000968    0.00299041 0.00000000 0.00000000  0.53D-02      0.24
   3   15   12    0      -3.66549302      -3.66549302   -0.00000000    0.00000338 0.00000000 0.00000000  0.46D-05      0.34

 ** WVFN ****  CONVERGENCE REACHED, FINAL GRADIENT:  0.40D-11



 Results for state 1.4
 =====================

 !MCSCF STATE 1.4 Energy               -3.665493017729
 Nuclear energy                         0.00000000
 Kinetic energy                         1.31912004
 One electron energy                   -5.65758756
 Two electron energy                    1.99209455
 Virial ratio                           3.77874105

 !MCSCF STATE 1.4 Dipole moment         0.00000000     0.00000000     0.00000000
 Dipole moment /Debye                   0.00000000     0.00000000     0.00000000



 Results for state 1.6
 =====================

 !MCSCF STATE 1.6 Energy               -3.665493017729
 Nuclear energy                         0.00000000
 Kinetic energy                         1.31912004
 One electron energy                   -5.65758756
 Two electron energy                    1.99209455
 Virial ratio                           3.77874105

 !MCSCF STATE 1.6 Dipole moment         0.00000000     0.00000000     0.00000000
 Dipole moment /Debye                   0.00000000     0.00000000     0.00000000



 Results for state 1.7
 =====================

 !MCSCF STATE 1.7 Energy               -3.665493017729
 Nuclear energy                         0.00000000
 Kinetic energy                         1.31912004
 One electron energy                   -5.65758756
 Two electron energy                    1.99209455
 Virial ratio                           3.77874105

 !MCSCF STATE 1.7 Dipole moment         0.00000000     0.00000000     0.00000000
 Dipole moment /Debye                   0.00000000     0.00000000     0.00000000

 State-averaged charge density matrix saved on record  5202.2 (density set 1)


 NATURAL ORBITALS (state averaged)
 =================================

   Orb     Occ        Energy       Coefficients

                                   1 1s      1 1s      1 1s      1 1s      1 1s      1 1s      1 1s      1 1s      1 1s      1 1s   
                                   1 1s      1 1s      1 1s      1 1s      1 1s      1 1s      1 1s      1 1s      1 1s      1 1s   
                                   1 1s      1 3d0     1 3d2+    1 3d0     1 3d2+    1 3d0     1 3d2+    1 3d0     1 3d2+    1 3d0  
                                   1 3d2+    1 5g0     1 5g4+    1 5g2+    1 5g0     1 5g4+    1 5g2+    1 5g0     1 5g4+    1 5g2+ 


   1.1  2.00000    -0.539780     0.000000 -0.000000  0.000000 -0.000000  0.000001 -0.000003  0.000010 -0.000033  0.000100 -0.000282
                                 0.000743 -0.001819  0.004221 -0.013096  0.066616 -0.181185 -0.177583  0.375620  0.612735  0.224161
                                 0.000305  0.000000  0.000000  0.000000  0.000000  0.000000  0.000000  0.000000  0.000000  0.000000
                                 0.000000  0.000000  0.000000  0.000000  0.000000  0.000000  0.000000  0.000000  0.000000  0.000000

                                   1 2px     1 2px     1 2px     1 2px     1 2px     1 2px     1 2px     1 2px     1 2px     1 2px  
                                   1 2px     1 2px     1 2px     1 4f1+    1 4f3+    1 4f1+    1 4f3+    1 4f1+    1 4f3+    1 4f1+ 
                                   1 4f3+    1 6h1+    1 6h3+    1 6h5+    1 6h1+    1 6h3+    1 6h5+ 

   1.2  0.66667    -0.066657     0.000001 -0.000010  0.000054 -0.000228  0.000816 -0.002522  0.009815 -0.040727  0.006321  0.338649
                                 0.531586  0.252965  0.003733  0.000000  0.000000  0.000000  0.000000  0.000000  0.000000  0.000000
                                 0.000000  0.000000  0.000000  0.000000  0.000000  0.000000  0.000000

                                   1 2py     1 2py     1 2py     1 2py     1 2py     1 2py     1 2py     1 2py     1 2py     1 2py  
                                   1 2py     1 2py     1 2py     1 4f1-    1 4f3-    1 4f1-    1 4f3-    1 4f1-    1 4f3-    1 4f1- 
                                   1 4f3-    1 6h1-    1 6h3-    1 6h5-    1 6h1-    1 6h3-    1 6h5- 

   1.3  0.66667    -0.066657     0.000001 -0.000010  0.000054 -0.000228  0.000816 -0.002522  0.009815 -0.040727  0.006321  0.338649
                                 0.531586  0.252965  0.003733  0.000000  0.000000  0.000000  0.000000  0.000000  0.000000  0.000000
                                 0.000000  0.000000  0.000000  0.000000  0.000000  0.000000  0.000000

                                   1 2pz     1 2pz     1 2pz     1 2pz     1 2pz     1 2pz     1 2pz     1 2pz     1 2pz     1 2pz  
                                   1 2pz     1 2pz     1 2pz     1 4f0     1 4f2+    1 4f0     1 4f2+    1 4f0     1 4f2+    1 4f0  
                                   1 4f2+    1 6h2+    1 6h4+    1 6h0     1 6h2+    1 6h4+    1 6h0  

   1.5  0.66667    -0.066657     0.000001 -0.000010  0.000054 -0.000228  0.000816 -0.002522  0.009815 -0.040727  0.006321  0.338649
                                 0.531586  0.252965  0.003733  0.000000  0.000000  0.000000  0.000000  0.000000  0.000000  0.000000
                                 0.000000  0.000000  0.000000  0.000000  0.000000  0.000000  0.000000
 

 EXTRA SYMMETRY OF MOS IN SYMMETRY 1:   1 1 3 2 1 3 2 4 5 6   2 3 1 6 4 5 3 2 1 6   4 5 2 3 1 1 1 1 1 1   1 1 1 1 1 1 1 1 1 1
 EXTRA SYMMETRY OF MOS IN SYMMETRY 2:   1 1 1 3 2 3 2 1 3 2   6 5 4 1 2 3 6 5 4 1   1 1 1 1 1 1 1
 EXTRA SYMMETRY OF MOS IN SYMMETRY 3:   1 1 1 2 3 2 3 1 2 3   6 5 4 1 3 2 6 5 4 1   1 1 1 1 1 1 1
 EXTRA SYMMETRY OF MOS IN SYMMETRY 4:   1 1 3 2 1 2 3 1 2 3   1
 EXTRA SYMMETRY OF MOS IN SYMMETRY 5:   1 1 1 3 2 3 2 1 3 2   5 6 4 1 3 2 4 5 6 1   1 1 1 1 1 1 1
 EXTRA SYMMETRY OF MOS IN SYMMETRY 6:   1 1 3 2 1 3 2 1 3 2   1
 EXTRA SYMMETRY OF MOS IN SYMMETRY 7:   1 1 3 2 1 3 2 1 3 2   1
 EXTRA SYMMETRY OF MOS IN SYMMETRY 8:   1 1 1 3 2 1 2 3

 Natural orbital dump (state averaged) at molpro section  5202.2    (Orbital set 2)


 CI vector for state symmetry 1
 ==============================

 a a 0           1.0000000

 TOTAL ENERGIES                        -3.66549302

 CI vector for state symmetry 2
 ==============================

 a 0 a           1.0000000

 TOTAL ENERGIES                        -3.66549302

 CI vector for state symmetry 3
 ==============================

 0 a a           1.0000000

 TOTAL ENERGIES                        -3.66549302



 **********************************************************************************************************************************
 DATASETS  * FILE   NREC   LENGTH (MB)   RECORD NAMES
              1      21       39.02       500      610      700      900      950      970     1000      129      960     1100   
                                          VAR    BASINP    GEOM    SYMINP    ZMAT    AOBASIS   BASIS     P2S    ABASIS      S 
                                         1400     1410     1420     1200     1210     1080     1600     1650     1300     1700   
                                           T        V       ECP      H0       H01     AOSYM     SMH    MOLCAS    ERIS     OPER   
                                         1380   
                                         JKOP   

              2       6        6.82       200      700     1000      520     4202     5202   
                                        OPTIONS   GEOM     BASIS   MCVARS     RHF     MCSCF   

 PROGRAMS   *        TOTAL     MULTI       RHF       INT
 CPU TIMES  *         4.78      0.47      0.32      3.82
 REAL TIME  *         6.12 SEC
 DISK USED  *       138.01 MB      
 **********************************************************************************************************************************

1PROGRAM * RHF-SCF (OPEN SHELL)       Authors: W. Meyer, H.-J. Werner


 NUMBER OF ELECTRONS:       3+    1-    SPACE SYMMETRY=4    SPIN SYMMETRY: Triplet 
 CONVERGENCE THRESHOLDS:    1.00E-05 (Density)    1.00E-07 (Energy)
 MAX. NUMBER OF ITERATIONS:        0
 INTERPOLATION TYPE:            DIIS
 INTERPOLATION STEPS:              2 (START)      1 (STEP)
 LEVEL SHIFTS:                 -0.30 (CLOSED)  0.00 (OPEN) 


 Singly occupied orbitals:      1.2       1.3
 Molecular orbitals read from record     5202.2  Type=MCSCF/NATURAL  

 Molecular orbital dump at record        2101.2

 ITERATION    DDIFF          GRAD             ENERGY        2-EL.EN.            DIPOLE MOMENTS         DIIS   ORB.
    1      0.000D+00      0.000D+00        -3.66549302      3.984189    0.00000    0.00000    0.00000    0    start

 Final alpha occupancy:   1   1   1   0   0   0   0   0
 Final beta  occupancy:   1   0   0   0   0   0   0   0

 !RHF STATE 1.4 Energy                 -3.665493017729
 Nuclear energy                         0.00000000
 One-electron energy                   -5.65758756
 Two-electron energy                    1.99209455
 Virial quotient                       -2.77874105
 !RHF STATE 1.4 Dipole moment           0.00000000     0.00000000     0.00000000
 Dipole moment /Debye                   0.00000000     0.00000000     0.00000000

 Orbital energies:

         1.1          2.1          3.1
     -0.539780     0.050085     0.136534

         1.2          2.2          3.2
     -0.066657     0.052413     0.261291

         1.3          2.3          3.3
     -0.066657     0.052413     0.261291

         1.4          2.4
      0.136534     0.385567

         1.5          2.5
     -0.066657     0.052413

         1.6          2.6
      0.136534     0.385567

         1.7          2.7
      0.136534     0.385567

         1.8          2.8
      0.287948     0.772690

 HOMO      1.2    -0.066657 =      -1.8138eV
 LUMO      1.5    -0.066657 =      -1.8138eV
 LUMO-HOMO        -0.000000 =      -0.0000eV


 **********************************************************************************************************************************
 DATASETS  * FILE   NREC   LENGTH (MB)   RECORD NAMES
              1      21       39.02       500      610      700      900      950      970     1000      129      960     1100   
                                          VAR    BASINP    GEOM    SYMINP    ZMAT    AOBASIS   BASIS     P2S    ABASIS      S 
                                         1400     1410     1420     1200     1210     1080     1600     1650     1300     1700   
                                           T        V       ECP      H0       H01     AOSYM     SMH    MOLCAS    ERIS     OPER   
                                         1380   
                                         JKOP   

              2       7        9.53       200      700     1000      520     4202     5202     2101   
                                        OPTIONS   GEOM     BASIS   MCVARS     RHF     MCSCF     RHF  

 PROGRAMS   *        TOTAL       RHF     MULTI       RHF       INT
 CPU TIMES  *         4.88      0.08      0.47      0.32      3.82
 REAL TIME  *         6.28 SEC
 DISK USED  *       138.01 MB      
 **********************************************************************************************************************************
 SETTING SCF(1)         =        -3.66549302  AU                              
 SETTING _CC_NORM_MAX   =         2.00000000                                  


1PROGRAM * CCSD (Unrestricted open-shell coupled cluster)     Authors: C. Hampel, H.-J. Werner, 1991, M. Deegan, P.J. Knowles, 1992


 Convergence thresholds:  THRVAR = 1.00D-08  THRDEN = 1.00D-06

 CCSD(T)     terms to be evaluated (factor= 1.000)


 Number of closed-shell orbitals:   1 (   1   0   0   0   0   0   0   0 )
 Number of active  orbitals:        2 (   0   1   1   0   0   0   0   0 )
 Number of external orbitals:     159 (  39  26  26  11  27  11  11   8 )

 Memory could be reduced to 5.37 Mwords without degradation in triples

 Number of N-1 electron functions:               4
 Number of N-2 electron functions:               6
 Number of singly external CSFs:               132
 Number of doubly external CSFs:             16212
 Total number of CSFs:                       16344

 Molecular orbitals read from record     2101.2  Type=RHF/CANONICAL (state 1.4)

 Integral transformation finished. Total CPU:   0.18 sec, npass=  1  Memory used:   0.63 MW

 Starting RMP2 calculation

 ITER.      SQ.NORM     CORR.ENERGY   TOTAL ENERGY   ENERGY CHANGE        DEN1      VAR(S)    VAR(P)  DIIS     TIME
   1      1.04274262    -0.06887897    -3.73437198    -0.06887897    -0.00075649  0.40D-04  0.48D-03  1  1     0.18
   2      1.04417808    -0.06975612    -3.73524914    -0.00087715    -0.00000319  0.45D-07  0.20D-05  2  2     0.18
   3      1.04422786    -0.06977399    -3.73526701    -0.00001787    -0.00000001  0.43D-09  0.76D-08  3  3     0.18
   4      1.04422872    -0.06977429    -3.73526731    -0.00000030    -0.00000000  0.16D-11  0.31D-10  4  4     0.18

 Norm of t1 vector:      0.05228613      S-energy:    -0.00265694      T1 diagnostic:  0.00190366
 Norm of t2 vector:      0.20370293      P-energy:    -0.06711735
                                         Alpha-Beta:  -0.05605639
                                         Alpha-Alpha: -0.01106097
                                         Beta-Beta:    0.00000000

 Spin contamination <S**2-Sz**2-Sz>     0.00782354
  Reference energy                     -3.665493017729
  RHF-RMP2 correlation energy          -0.069774288062
 !RHF-RMP2 energy                      -3.735267305791

 Starting UCCSD calculation

 ITER.      SQ.NORM     CORR.ENERGY   TOTAL ENERGY   ENERGY CHANGE        DEN1      VAR(S)    VAR(P)  DIIS     TIME
   1      1.05697823    -0.07648304    -3.74197606    -0.07648304    -0.00528734  0.37D-03  0.31D-02  1  1     0.35
   2      1.07311618    -0.08354420    -3.74903722    -0.00706116    -0.00027261  0.23D-04  0.15D-03  2  2     0.49
   3      1.07656101    -0.08444887    -3.74994189    -0.00090467    -0.00002612  0.25D-05  0.16D-04  3  3     0.64
   4      1.07773253    -0.08470897    -3.75020199    -0.00026010    -0.00000237  0.14D-06  0.14D-05  4  4     0.79
   5      1.07792162    -0.08473271    -3.75022573    -0.00002374    -0.00000016  0.14D-07  0.93D-07  5  5     0.93
   6      1.07793442    -0.08473176    -3.75022478     0.00000095    -0.00000001  0.89D-09  0.86D-08  6  6     1.09

 Norm of t1 vector:      0.06927355      S-energy:    -0.00308412      T1 diagnostic:  0.01080063
                                                                       D1 diagnostic:  0.01627328
 Norm of t2 vector:      0.27043593      P-energy:    -0.08164764
                                         Alpha-Beta:  -0.06937099
                                         Alpha-Alpha: -0.01227665
                                         Beta-Beta:    0.00000000

 Doubles amplitudes (print threshold =  0.500E-01):

         I         J         SYM. A    SYM. B    A         B      T(IJ, AB) [Alpha-Beta]

         1         1         5         5         1         1     -0.11365517
         2         1         1         2         5         1     -0.05348270
         2         1         4         3         2         1     -0.05348270
         2         1         6         5         2         1     -0.05545857
         3         1         1         3         5         1      0.05348270
         3         1         4         2         2         1     -0.05348270
         3         1         7         5         2         1     -0.05545857

 Spin contamination <S**2-Sz**2-Sz>     0.00410764

 Memory could be reduced to 5.52 Mwords without degradation in triples
 

 RESULTS
 =======

  Reference energy                     -3.665493017729
  UCCSD singles energy                 -0.003084121517
  UCCSD pair energy                    -0.081647638999
  UCCSD correlation energy             -0.084731760516
  Triples (T) contribution             -0.003419848122
  Total correlation energy             -0.088151608638
 
  RHF-UCCSD energy                     -3.750224778245
  RHF-UCCSD[T] energy                  -3.753575691673
  RHF-UCCSD-T energy                   -3.753652946267
 !RHF-UCCSD(T) energy                  -3.753644626367

 Program statistics:

 Available memory in ccsd:               511999798
 Min. memory needed in ccsd:                161647
 Max. memory used in ccsd:                  172851
 Max. memory used in cckext:                193869 ( 6 integral passes)
 Max. memory used in cckint:                632937 ( 1 integral passes)



 **********************************************************************************************************************************
 DATASETS  * FILE   NREC   LENGTH (MB)   RECORD NAMES
              1      21       39.02       500      610      700      900      950      970     1000      129      960     1100   
                                          VAR    BASINP    GEOM    SYMINP    ZMAT    AOBASIS   BASIS     P2S    ABASIS      S 
                                         1400     1410     1420     1200     1210     1080     1600     1650     1300     1700   
                                           T        V       ECP      H0       H01     AOSYM     SMH    MOLCAS    ERIS     OPER   
                                         1380   
                                         JKOP   

              2       7        9.53       200      700     1000      520     4202     5202     2101   
                                        OPTIONS   GEOM     BASIS   MCVARS     RHF     MCSCF     RHF  

 PROGRAMS   *        TOTAL  UCCSD(T)       RHF     MULTI       RHF       INT
 CPU TIMES  *         6.14      1.26      0.08      0.47      0.32      3.82
 REAL TIME  *         7.86 SEC
 DISK USED  *       138.01 MB      
 **********************************************************************************************************************************
 SETTING CCSD(1)        =        -3.75364463  AU                              

 DO I                   =         2.00000000   

 Running procedure=IP1

1PROGRAM * RHF-SCF (OPEN SHELL)       Authors: W. Meyer, H.-J. Werner


 NUMBER OF ELECTRONS:       2+    1-    SPACE SYMMETRY=2    SPIN SYMMETRY: Doublet 
 CONVERGENCE THRESHOLDS:    1.00E-05 (Density)    1.00E-07 (Energy)
 MAX. NUMBER OF ITERATIONS:       60
 INTERPOLATION TYPE:            DIIS
 INTERPOLATION STEPS:              2 (START)      1 (STEP)
 LEVEL SHIFTS:                 -0.30 (CLOSED)  0.00 (OPEN) 


 Singly occupied orbitals:      1.2
 Orbital guess generated from atomic densities. Full valence occupancy:    1   1   1   0   1   0   0   0


 Molecular orbital dump at record        4202.2

 ITERATION    DDIFF          GRAD             ENERGY        2-EL.EN.            DIPOLE MOMENTS         DIIS   ORB.
    1      0.000D+00      0.000D+00        -3.34571845      2.023405    0.00000    0.00000    0.00000    0    start
    2      0.000D+00      0.106D-01        -3.38021489      2.186415    0.00000    0.00000    0.00000    1    diag,B
    3      0.573D-02      0.312D-02        -3.38384109      2.244036    0.00000    0.00000    0.00000    2    diag,B
    4      0.291D-02      0.555D-03        -3.38390976      2.250794    0.00000    0.00000    0.00000    3    diag,B
    5      0.116D-02      0.686D-04        -3.38391101      2.250021    0.00000    0.00000    0.00000    4    diag,B
    6      0.991D-04      0.154D-04        -3.38391106      2.250177    0.00000    0.00000    0.00000    5    diag,B
    7      0.140D-04      0.259D-05        -3.38391106      2.250167    0.00000    0.00000    0.00000    6    fixocc
    8      0.499D-05      0.411D-06        -3.38391106      2.250168    0.00000    0.00000    0.00000    0    orth

 Final alpha occupancy:   1   1   0   0   0   0   0   0
 Final beta  occupancy:   1   0   0   0   0   0   0   0

 !RHF STATE 1.2 Energy                 -3.383911062353
 Nuclear energy                         0.00000000
 One-electron energy                   -4.50899503
 Two-electron energy                    1.12508397
 Virial quotient                       -3.14182304
 !RHF STATE 1.2 Dipole moment           0.00000000     0.00000000     0.00000000
 Dipole moment /Debye                   0.00000000     0.00000000     0.00000000

 Orbital energies:

         1.1          2.1          3.1
     -0.837208    -0.106674    -0.043142

         1.2          2.2          3.2
     -0.584413    -0.072135     0.065139

         1.3          2.3
     -0.268419    -0.070699

         1.4          2.4
     -0.042627     0.133125

         1.5          2.5
     -0.268419    -0.070699

         1.6          2.6
     -0.042627     0.133125

         1.7          2.7
     -0.040694     0.142957

         1.8          2.8
      0.112156     0.527576

 HOMO      1.2    -0.584413 =     -15.9027eV
 LUMO      1.3    -0.268419 =      -7.3040eV
 LUMO-HOMO         0.315994 =       8.5986eV


 **********************************************************************************************************************************
 DATASETS  * FILE   NREC   LENGTH (MB)   RECORD NAMES
              1      21       39.02       500      610      700      900      950      970     1000      129      960     1100   
                                          VAR    BASINP    GEOM    SYMINP    ZMAT    AOBASIS   BASIS     P2S    ABASIS      S 
                                         1400     1410     1420     1200     1210     1080     1600     1650     1300     1700   
                                           T        V       ECP      H0       H01     AOSYM     SMH    MOLCAS    ERIS     OPER   
                                         1380   
                                         JKOP   

              2       7        9.53       200      700     1000      520     4202     5202     2101   
                                        OPTIONS   GEOM     BASIS   MCVARS     RHF     MCSCF     RHF  

 PROGRAMS   *        TOTAL       RHF  UCCSD(T)       RHF     MULTI       RHF       INT
 CPU TIMES  *         6.47      0.33      1.26      0.08      0.47      0.32      3.82
 REAL TIME  *         8.30 SEC
 DISK USED  *       138.01 MB      
 **********************************************************************************************************************************

1PROGRAM * MULTI (Direct Multiconfiguration SCF)       Authors: P.J. Knowles, H.-J. Werner (1984)     S.T. Elbert (1988)


 Number of closed-shell orbitals:   1 (   1   0   0   0   0   0   0   0 )
 Number of active  orbitals:        3 (   0   1   1   0   1   0   0   0 )
 Number of external orbitals:     158 (  39  26  26  11  26  11  11   8 )

 State symmetry 1

 Number of electrons:     1    Spin symmetry=Doublet   Space symmetry=2
 Number of states:        1
 Number of CSFs:          1   (1 determinants, 3 intermediate states)

 State symmetry 2

 Number of electrons:     1    Spin symmetry=Doublet   Space symmetry=3
 Number of states:        1
 Number of CSFs:          1   (1 determinants, 3 intermediate states)

 State symmetry 3

 Number of electrons:     1    Spin symmetry=Doublet   Space symmetry=5
 Number of states:        1
 Number of CSFs:          1   (1 determinants, 3 intermediate states)

 Molecular orbitals read from record     4202.2  Type=RHF/CANONICAL (state 1.2)
 *** IN SYMMETRY 1 ORBITAL  1 SYMMETRY CONTAMINATION OF 0.656D-02 HAS BEEN REMOVED

 EXTRA SYMMETRY OF MOS IN SYMMETRY 1:   1 1 3 2 1 3 2 4 5 6   2 3 1 4 5 6 2 3 1 4   5 6 2 3 1 1 1 1 1 1   1 1 1 1 1 1 1 1 1 1
 *** IN SYMMETRY 2 ORBITAL  1 SYMMETRY CONTAMINATION OF 0.335D-03 HAS BEEN REMOVED
 EXTRA SYMMETRY OF MOS IN SYMMETRY 2:   1 1 1 2 3 2 3 1 2 3   5 6 4 1 2 3 5 6 4 1   1 1 1 1 1 1 1
 *** IN SYMMETRY 3 ORBITAL  1 SYMMETRY CONTAMINATION OF 0.279D-02 HAS BEEN REMOVED
 EXTRA SYMMETRY OF MOS IN SYMMETRY 3:   1 1 1 2 3 2 3 1 2 3   4 5 6 1 2 3 4 5 6 1   1 1 1 1 1 1 1
 EXTRA SYMMETRY OF MOS IN SYMMETRY 4:   1 1 2 3 1 2 3 1 2 3   1
 *** IN SYMMETRY 5 ORBITAL  1 SYMMETRY CONTAMINATION OF 0.322D-02 HAS BEEN REMOVED
 EXTRA SYMMETRY OF MOS IN SYMMETRY 5:   1 1 1 2 3 2 3 1 2 3   6 5 4 1 2 3 6 5 4 1   1 1 1 1 1 1 1
 EXTRA SYMMETRY OF MOS IN SYMMETRY 6:   1 1 3 2 1 3 2 1 3 2   1
 EXTRA SYMMETRY OF MOS IN SYMMETRY 7:   1 1 2 3 1 2 3 1 2 3   1
 EXTRA SYMMETRY OF MOS IN SYMMETRY 8:   1 1 1 3 2 1 3 2

 Wavefunction dump at record             5202.2

 Convergence thresholds  0.10E-01 (gradient)  0.10E-05 (energy)  0.10E-02 (step length)

 Weight factors for state symmetry  1:    0.33333
 Weight factors for state symmetry  2:    0.33333
 Weight factors for state symmetry  3:    0.33333

 Number of orbital rotations:      117   (     0 Core/Active     39 Core/Virtual   0 Active/Active     78 Active/Virtual)
 Total number of variables:        120


 ITER. MIC  NCI  NEG     ENERGY(VAR)     ENERGY(PROJ)   ENERGY CHANGE     GRAD(0)  GRAD(ORB)   GRAD(CI)     STEP       TIME

   1   18   12    0      -3.37613645      -3.38384460   -0.00770815    0.03484077 0.00000000 0.00000000  0.24D+00      0.13
   2   14   12    0      -3.38384377      -3.38384425   -0.00000048    0.00089958 0.00000000 0.00000000  0.59D-03      0.24

 ** WVFN ****  CONVERGENCE REACHED, FINAL GRADIENT:  0.89D-07



 Results for state 1.2
 =====================

 !MCSCF STATE 1.2 Energy               -3.383844246678
 Nuclear energy                         0.00000000
 Kinetic energy                         1.07703972
 One electron energy                   -4.50907595
 Two electron energy                    1.12523170
 Virial ratio                           4.14180081

 !MCSCF STATE 1.2 Dipole moment         0.00000000     0.00000000     0.00000000
 Dipole moment /Debye                   0.00000000     0.00000000     0.00000000



 Results for state 1.3
 =====================

 !MCSCF STATE 1.3 Energy               -3.383844246678
 Nuclear energy                         0.00000000
 Kinetic energy                         1.07703972
 One electron energy                   -4.50907595
 Two electron energy                    1.12523170
 Virial ratio                           4.14180080

 !MCSCF STATE 1.3 Dipole moment         0.00000000     0.00000000     0.00000000
 Dipole moment /Debye                   0.00000000     0.00000000     0.00000000



 Results for state 1.5
 =====================

 !MCSCF STATE 1.5 Energy               -3.383844246678
 Nuclear energy                         0.00000000
 Kinetic energy                         1.07703972
 One electron energy                   -4.50907595
 Two electron energy                    1.12523170
 Virial ratio                           4.14180080

 !MCSCF STATE 1.5 Dipole moment         0.00000000     0.00000000     0.00000000
 Dipole moment /Debye                   0.00000000     0.00000000     0.00000000

 State-averaged charge density matrix saved on record  5202.2 (density set 1)


 NATURAL ORBITALS (state averaged)
 =================================

   Orb     Occ        Energy       Coefficients

                                   1 1s      1 1s      1 1s      1 1s      1 1s      1 1s      1 1s      1 1s      1 1s      1 1s   
                                   1 1s      1 1s      1 1s      1 1s      1 1s      1 1s      1 1s      1 1s      1 1s      1 1s   
                                   1 1s      1 3d0     1 3d2+    1 3d0     1 3d2+    1 3d0     1 3d2+    1 3d0     1 3d2+    1 3d0  
                                   1 3d2+    1 5g0     1 5g4+    1 5g2+    1 5g0     1 5g4+    1 5g2+    1 5g0     1 5g4+    1 5g2+ 


   1.1  2.00000    -0.837162     0.000000 -0.000000  0.000000 -0.000000  0.000001 -0.000003  0.000010 -0.000031  0.000095 -0.000267
                                 0.000704 -0.001731  0.004058 -0.012913  0.068999 -0.191502 -0.197938  0.451111  0.661099  0.115323
                                -0.003701  0.000000  0.000000  0.000000  0.000000  0.000000  0.000000  0.000000  0.000000  0.000000
                                 0.000000  0.000000  0.000000  0.000000  0.000000  0.000000  0.000000  0.000000  0.000000  0.000000

                                   1 2px     1 2px     1 2px     1 2px     1 2px     1 2px     1 2px     1 2px     1 2px     1 2px  
                                   1 2px     1 2px     1 2px     1 4f1+    1 4f3+    1 4f1+    1 4f3+    1 4f1+    1 4f3+    1 4f1+ 
                                   1 4f3+    1 6h1+    1 6h3+    1 6h5+    1 6h1+    1 6h3+    1 6h5+ 

   1.2  0.33333    -0.294128     0.000001 -0.000010  0.000055 -0.000235  0.000842 -0.002611  0.010570 -0.045951  0.007315  0.424949
                                 0.566411  0.112489 -0.005287  0.000000  0.000000  0.000000  0.000000  0.000000  0.000000  0.000000
                                 0.000000  0.000000  0.000000  0.000000  0.000000  0.000000  0.000000

                                   1 2py     1 2py     1 2py     1 2py     1 2py     1 2py     1 2py     1 2py     1 2py     1 2py  
                                   1 2py     1 2py     1 2py     1 4f1-    1 4f3-    1 4f1-    1 4f3-    1 4f1-    1 4f3-    1 4f1- 
                                   1 4f3-    1 6h1-    1 6h3-    1 6h5-    1 6h1-    1 6h3-    1 6h5- 

   1.3  0.33333    -0.294128     0.000001 -0.000010  0.000055 -0.000235  0.000842 -0.002611  0.010570 -0.045951  0.007315  0.424949
                                 0.566411  0.112489 -0.005287  0.000000  0.000000  0.000000  0.000000  0.000000  0.000000  0.000000
                                 0.000000  0.000000  0.000000  0.000000  0.000000  0.000000  0.000000

                                   1 2pz     1 2pz     1 2pz     1 2pz     1 2pz     1 2pz     1 2pz     1 2pz     1 2pz     1 2pz  
                                   1 2pz     1 2pz     1 2pz     1 4f0     1 4f2+    1 4f0     1 4f2+    1 4f0     1 4f2+    1 4f0  
                                   1 4f2+    1 6h2+    1 6h4+    1 6h0     1 6h2+    1 6h4+    1 6h0  

   1.5  0.33333    -0.294128     0.000001 -0.000010  0.000055 -0.000235  0.000842 -0.002611  0.010570 -0.045951  0.007315  0.424949
                                 0.566411  0.112489 -0.005287  0.000000  0.000000  0.000000  0.000000  0.000000  0.000000  0.000000
                                 0.000000  0.000000  0.000000  0.000000  0.000000  0.000000  0.000000

 Total charge:   1.000000000000
 

 EXTRA SYMMETRY OF MOS IN SYMMETRY 1:   1 1 2 3 1 3 2 5 4 6   3 2 1 5 4 6 3 2 1 4   6 5 3 2 1 1 1 1 1 1   1 1 1 1 1 1 1 1 1 1
 EXTRA SYMMETRY OF MOS IN SYMMETRY 2:   1 1 1 2 3 2 3 1 3 2   5 6 4 1 3 2 6 4 5 1   1 1 1 1 1 1 1
 EXTRA SYMMETRY OF MOS IN SYMMETRY 3:   1 1 1 2 3 2 3 1 3 2   4 5 6 1 3 2 6 5 4 1   1 1 1 1 1 1 1
 EXTRA SYMMETRY OF MOS IN SYMMETRY 4:   1 1 2 3 1 2 3 1 3 2   1
 EXTRA SYMMETRY OF MOS IN SYMMETRY 5:   1 1 1 2 3 2 3 1 3 2   6 4 5 1 3 2 5 6 4 1   1 1 1 1 1 1 1
 EXTRA SYMMETRY OF MOS IN SYMMETRY 6:   1 1 3 2 1 3 2 1 2 3   1
 EXTRA SYMMETRY OF MOS IN SYMMETRY 7:   1 1 2 3 1 2 3 1 3 2   1
 EXTRA SYMMETRY OF MOS IN SYMMETRY 8:   1 1 1 3 2 1 2 3

 Natural orbital dump (state averaged) at molpro section  5202.2    (Orbital set 2)


 CI vector for state symmetry 1
 ==============================

 a 0 0           1.0000000

 TOTAL ENERGIES                        -3.38384425

 CI vector for state symmetry 2
 ==============================

 0 a 0           1.0000000

 TOTAL ENERGIES                        -3.38384425

 CI vector for state symmetry 3
 ==============================

 0 0 a           1.0000000

 TOTAL ENERGIES                        -3.38384425



 **********************************************************************************************************************************
 DATASETS  * FILE   NREC   LENGTH (MB)   RECORD NAMES
              1      21       39.02       500      610      700      900      950      970     1000      129      960     1100   
                                          VAR    BASINP    GEOM    SYMINP    ZMAT    AOBASIS   BASIS     P2S    ABASIS      S 
                                         1400     1410     1420     1200     1210     1080     1600     1650     1300     1700   
                                           T        V       ECP      H0       H01     AOSYM     SMH    MOLCAS    ERIS     OPER   
                                         1380   
                                         JKOP   

              2       7        9.53       200      700     1000      520     4202     5202     2101   
                                        OPTIONS   GEOM     BASIS   MCVARS     RHF     MCSCF     RHF  

 PROGRAMS   *        TOTAL     MULTI       RHF  UCCSD(T)       RHF     MULTI       RHF       INT
 CPU TIMES  *         6.83      0.36      0.33      1.26      0.08      0.47      0.32      3.82
 REAL TIME  *         8.98 SEC
 DISK USED  *       138.01 MB      
 **********************************************************************************************************************************

1PROGRAM * RHF-SCF (OPEN SHELL)       Authors: W. Meyer, H.-J. Werner


 NUMBER OF ELECTRONS:       2+    1-    SPACE SYMMETRY=2    SPIN SYMMETRY: Doublet 
 CONVERGENCE THRESHOLDS:    1.00E-05 (Density)    1.00E-07 (Energy)
 MAX. NUMBER OF ITERATIONS:        0
 INTERPOLATION TYPE:            DIIS
 INTERPOLATION STEPS:              2 (START)      1 (STEP)
 LEVEL SHIFTS:                 -0.30 (CLOSED)  0.00 (OPEN) 


 Singly occupied orbitals:      1.2
 Molecular orbitals read from record     5202.2  Type=MCSCF/NATURAL  

 Molecular orbital dump at record        2103.2

 ITERATION    DDIFF          GRAD             ENERGY        2-EL.EN.            DIPOLE MOMENTS         DIIS   ORB.
    1      0.000D+00      0.000D+00        -3.38384425      2.250463    0.00000    0.00000    0.00000    0    start

 Final alpha occupancy:   1   1   0   0   0   0   0   0
 Final beta  occupancy:   1   0   0   0   0   0   0   0

 !RHF STATE 1.2 Energy                 -3.383844246678
 Nuclear energy                         0.00000000
 One-electron energy                   -4.50907595
 Two-electron energy                    1.12523170
 Virial quotient                       -3.14180081
 !RHF STATE 1.2 Dipole moment           0.00000000     0.00000000     0.00000000
 Dipole moment /Debye                   0.00000000     0.00000000     0.00000000

 Orbital energies:

         1.1          2.1          3.1
     -0.837162    -0.104457    -0.036478

         1.2          2.2          3.2
     -0.294128    -0.071831     0.070648

         1.3          2.3
     -0.294128    -0.071831

         1.4          2.4
     -0.036478     0.149455

         1.5          2.5
     -0.294128    -0.071831

         1.6          2.6
     -0.036478     0.149455

         1.7          2.7
     -0.036478     0.149455

         1.8          2.8
      0.113286     0.533444

 HOMO      1.2    -0.294128 =      -8.0036eV
 LUMO      1.3    -0.294128 =      -8.0036eV
 LUMO-HOMO         0.000000 =       0.0000eV


 **********************************************************************************************************************************
 DATASETS  * FILE   NREC   LENGTH (MB)   RECORD NAMES
              1      21       39.02       500      610      700      900      950      970     1000      129      960     1100   
                                          VAR    BASINP    GEOM    SYMINP    ZMAT    AOBASIS   BASIS     P2S    ABASIS      S 
                                         1400     1410     1420     1200     1210     1080     1600     1650     1300     1700   
                                           T        V       ECP      H0       H01     AOSYM     SMH    MOLCAS    ERIS     OPER   
                                         1380   
                                         JKOP   

              2       8       12.19       200      700     1000      520     4202     5202     2101     2103   
                                        OPTIONS   GEOM     BASIS   MCVARS     RHF     MCSCF     RHF      RHF  

 PROGRAMS   *        TOTAL       RHF     MULTI       RHF  UCCSD(T)       RHF     MULTI       RHF       INT
 CPU TIMES  *         6.92      0.09      0.36      0.33      1.26      0.08      0.47      0.32      3.82
 REAL TIME  *         9.13 SEC
 DISK USED  *       138.01 MB      
 **********************************************************************************************************************************
 SETTING SCF(2)         =        -3.38384425  AU                              
 SETTING _CC_NORM_MAX   =         2.00000000                                  


1PROGRAM * CCSD (Unrestricted open-shell coupled cluster)     Authors: C. Hampel, H.-J. Werner, 1991, M. Deegan, P.J. Knowles, 1992


 Convergence thresholds:  THRVAR = 1.00D-08  THRDEN = 1.00D-06

 CCSD(T)     terms to be evaluated (factor= 1.000)


 Number of closed-shell orbitals:   1 (   1   0   0   0   0   0   0   0 )
 Number of active  orbitals:        1 (   0   1   0   0   0   0   0   0 )
 Number of external orbitals:     160 (  39  26  27  11  27  11  11   8 )

 Memory could be reduced to 4.85 Mwords without degradation in triples

 Number of N-1 electron functions:               3
 Number of N-2 electron functions:               3
 Number of singly external CSFs:               105
 Number of doubly external CSFs:              9436
 Total number of CSFs:                        9541

 Molecular orbitals read from record     2103.2  Type=RHF/CANONICAL (state 1.2)

 Integral transformation finished. Total CPU:   0.13 sec, npass=  1  Memory used:   0.50 MW

 Starting RMP2 calculation

 ITER.      SQ.NORM     CORR.ENERGY   TOTAL ENERGY   ENERGY CHANGE        DEN1      VAR(S)    VAR(P)  DIIS     TIME
   1      1.03247797    -0.05324873    -3.43709297    -0.05324873    -0.00050018  0.41D-04  0.29D-03  1  1     0.14
   2      1.03339814    -0.05382375    -3.43766800    -0.00057503    -0.00000168  0.48D-07  0.87D-06  2  2     0.14
   3      1.03342526    -0.05383428    -3.43767852    -0.00001052    -0.00000000  0.21D-09  0.18D-08  3  3     0.14
   4      1.03342537    -0.05383431    -3.43767856    -0.00000003    -0.00000000  0.14D-11  0.48D-11  4  4     0.15

 Norm of t1 vector:      0.05434770      S-energy:    -0.00303668      T1 diagnostic:  0.00286099
 Norm of t2 vector:      0.17456144      P-energy:    -0.05079763
                                         Alpha-Beta:  -0.04739886
                                         Alpha-Alpha: -0.00339876
                                         Beta-Beta:    0.00000000

 Spin contamination <S**2-Sz**2-Sz>     0.01110697
  Reference energy                     -3.383844246678
  RHF-RMP2 correlation energy          -0.053834309373
 !RHF-RMP2 energy                      -3.437678556051

 Starting UCCSD calculation

 ITER.      SQ.NORM     CORR.ENERGY   TOTAL ENERGY   ENERGY CHANGE        DEN1      VAR(S)    VAR(P)  DIIS     TIME
   1      1.04566812    -0.06020113    -3.44404538    -0.06020113    -0.00484810  0.29D-03  0.28D-02  1  1     0.25
   2      1.06198795    -0.06714106    -3.45098531    -0.00693993    -0.00028419  0.18D-04  0.15D-03  2  2     0.35
   3      1.06597990    -0.06827279    -3.45211703    -0.00113172    -0.00002058  0.24D-05  0.10D-04  3  3     0.44
   4      1.06688011    -0.06848026    -3.45232451    -0.00020748    -0.00000137  0.86D-07  0.70D-06  4  4     0.54
   5      1.06699678    -0.06850222    -3.45234646    -0.00002195    -0.00000007  0.45D-08  0.32D-07  5  5     0.63
   6      1.06698887    -0.06849803    -3.45234228     0.00000418    -0.00000000  0.40D-09  0.13D-08  6  6     0.72
   7      1.06699294    -0.06849958    -3.45234382    -0.00000154    -0.00000000  0.36D-10  0.89D-10  6  1     0.82
   8      1.06699277    -0.06849956    -3.45234380     0.00000002    -0.00000000  0.13D-11  0.58D-11  6  4     0.92

 Norm of t1 vector:      0.06681597      S-energy:    -0.00343460      T1 diagnostic:  0.00996816
                                                                       D1 diagnostic:  0.01398594
 Norm of t2 vector:      0.25005678      P-energy:    -0.06506496
                                         Alpha-Beta:  -0.06144221
                                         Alpha-Alpha: -0.00362275
                                         Beta-Beta:    0.00000000

 Doubles amplitudes (print threshold =  0.500E-01):

         I         J         SYM. A    SYM. B    A         B      T(IJ, AB) [Alpha-Beta]

         1         1         3         3         1         1     -0.11835868
         1         1         5         5         1         1     -0.11835867
         2         1         1         2         5         1     -0.05578186
         2         1         4         3         2         1     -0.05533029
         2         1         6         5         2         1     -0.05533033

 Spin contamination <S**2-Sz**2-Sz>     0.00128107

 Memory could be reduced to 4.91 Mwords without degradation in triples
 

 RESULTS
 =======

  Reference energy                     -3.383844246678
  UCCSD singles energy                 -0.003434595066
  UCCSD pair energy                    -0.065064961859
  UCCSD correlation energy             -0.068499556926
  Triples (T) contribution             -0.001596738315
  Total correlation energy             -0.070096295240
 
  RHF-UCCSD energy                     -3.452343803604
  RHF-UCCSD[T] energy                  -3.453848401824
  RHF-UCCSD-T energy                   -3.453952103408
 !RHF-UCCSD(T) energy                  -3.453940541918

 Program statistics:

 Available memory in ccsd:               511999848
 Min. memory needed in ccsd:                137345
 Max. memory used in ccsd:                  141393
 Max. memory used in cckext:                172983 ( 8 integral passes)
 Max. memory used in cckint:                501472 ( 1 integral passes)



 **********************************************************************************************************************************
 DATASETS  * FILE   NREC   LENGTH (MB)   RECORD NAMES
              1      21       39.02       500      610      700      900      950      970     1000      129      960     1100   
                                          VAR    BASINP    GEOM    SYMINP    ZMAT    AOBASIS   BASIS     P2S    ABASIS      S 
                                         1400     1410     1420     1200     1210     1080     1600     1650     1300     1700   
                                           T        V       ECP      H0       H01     AOSYM     SMH    MOLCAS    ERIS     OPER   
                                         1380   
                                         JKOP   

              2       8       12.19       200      700     1000      520     4202     5202     2101     2103   
                                        OPTIONS   GEOM     BASIS   MCVARS     RHF     MCSCF     RHF      RHF  

 PROGRAMS   *        TOTAL  UCCSD(T)       RHF     MULTI       RHF  UCCSD(T)       RHF     MULTI       RHF       INT
 CPU TIMES  *         7.96      1.03      0.09      0.36      0.33      1.26      0.08      0.47      0.32      3.82
 REAL TIME  *        10.42 SEC
 DISK USED  *       138.01 MB      
 **********************************************************************************************************************************
 SETTING CCSD(2)        =        -3.45394054  AU                              

 DO I                   =         3.00000000   

 Running procedure=IP2

1PROGRAM * RHF-SCF (CLOSED SHELL)       Authors: W. Meyer, H.-J. Werner


 NUMBER OF ELECTRONS:       1+    1-    SPACE SYMMETRY=1    SPIN SYMMETRY: Singlet 
 CONVERGENCE THRESHOLDS:    1.00E-05 (Density)    1.00E-07 (Energy)
 MAX. NUMBER OF ITERATIONS:       60
 INTERPOLATION TYPE:            DIIS
 INTERPOLATION STEPS:              2 (START)      1 (STEP)
 LEVEL SHIFTS:                  0.00 (CLOSED)  0.00 (OPEN) 



 Orbital guess generated from atomic densities. Full valence occupancy:    1   1   1   0   1   0   0   0


 Molecular orbital dump at record        2104.2

 ITERATION    DDIFF          GRAD             ENERGY        2-EL.EN.            DIPOLE MOMENTS         DIIS   ORB.
    1      0.000D+00      0.000D+00        -2.77447014      0.814437    0.00000    0.00000    0.00000    0    start
    2      0.000D+00      0.186D-01        -2.80621928      0.885879    0.00000    0.00000    0.00000    1    diag
    3      0.102D-01      0.369D-02        -2.80758157      0.902508    0.00000    0.00000    0.00000    2    diag
    4      0.305D-02      0.101D-03        -2.80758244      0.902830    0.00000    0.00000    0.00000    3    diag
    5      0.137D-03      0.592D-05        -2.80758244      0.902805    0.00000    0.00000    0.00000    4    diag
    6      0.724D-05      0.251D-06        -2.80758244      0.902806    0.00000    0.00000    0.00000    0    orth

 Final occupancy:   1   0   0   0   0   0   0   0

 !RHF STATE 1.1 Energy                 -2.807582444909
 Nuclear energy                         0.00000000
 One-electron energy                   -3.25898541
 Two-electron energy                    0.45140296
 Virial quotient                       -4.09076958
 !RHF STATE 1.1 Dipole moment           0.00000000     0.00000000     0.00000000
 Dipole moment /Debye                   0.00000000     0.00000000     0.00000000

 Orbital energies:

         1.1          2.1          3.1
     -1.178090    -0.288589    -0.250090

         1.2          2.2
     -0.568836    -0.220033

         1.3          2.3
     -0.568836    -0.220033

         1.4          2.4
     -0.250090    -0.083607

         1.5          2.5
     -0.568836    -0.220033

         1.6          2.6
     -0.250090    -0.083607

         1.7          2.7
     -0.250090    -0.083607

         1.8          2.8
     -0.070863     0.281642

 HOMO      1.1    -1.178090 =     -32.0575eV
 LUMO      1.2    -0.568836 =     -15.4788eV
 LUMO-HOMO         0.609253 =      16.5786eV


 **********************************************************************************************************************************
 DATASETS  * FILE   NREC   LENGTH (MB)   RECORD NAMES
              1      21       39.02       500      610      700      900      950      970     1000      129      960     1100   
                                          VAR    BASINP    GEOM    SYMINP    ZMAT    AOBASIS   BASIS     P2S    ABASIS      S 
                                         1400     1410     1420     1200     1210     1080     1600     1650     1300     1700   
                                           T        V       ECP      H0       H01     AOSYM     SMH    MOLCAS    ERIS     OPER   
                                         1380   
                                         JKOP   

              2       9       14.82       200      700     1000      520     4202     5202     2101     2103     2104   
                                        OPTIONS   GEOM     BASIS   MCVARS     RHF     MCSCF     RHF      RHF      RHF  

 PROGRAMS   *        TOTAL       RHF  UCCSD(T)       RHF     MULTI       RHF  UCCSD(T)       RHF     MULTI       RHF       INT
 CPU TIMES  *         8.28      0.30      1.03      0.09      0.36      0.33      1.26      0.08      0.47      0.32      3.82
 REAL TIME  *        10.84 SEC
 DISK USED  *       138.01 MB      
 **********************************************************************************************************************************
 SETTING SCF(3)         =        -2.80758244  AU                              
 SETTING _CC_NORM_MAX   =         2.00000000                                  


1PROGRAM * CCSD (Unrestricted open-shell coupled cluster)     Authors: C. Hampel, H.-J. Werner, 1991, M. Deegan, P.J. Knowles, 1992


 Convergence thresholds:  THRVAR = 1.00D-08  THRDEN = 1.00D-06

 CCSD(T)     terms to be evaluated (factor= 1.000)


 Number of closed-shell orbitals:   1 (   1   0   0   0   0   0   0   0 )
 Number of external orbitals:     161 (  39  27  27  11  27  11  11   8 )

 Memory could be reduced to 4.30 Mwords without degradation in triples

 Number of N-1 electron functions:               2
 Number of N-2 electron functions:               1
 Number of singly external CSFs:                78
 Number of doubly external CSFs:              4182
 Total number of CSFs:                        4260

 Molecular orbitals read from record     2104.2  Type=RHF/CANONICAL (state 1.1)

 Integral transformation finished. Total CPU:   0.12 sec, npass=  1  Memory used:   0.38 MW

 Starting RMP2 calculation

 ITER.      SQ.NORM     CORR.ENERGY   TOTAL ENERGY   ENERGY CHANGE        DEN1      VAR(S)    VAR(P)  DIIS     TIME
   1      1.02223638    -0.03601622    -2.84359867    -0.03601622    -0.00043040  0.31D-14  0.28D-03  1  1     0.13
   2      1.02295932    -0.03650581    -2.84408826    -0.00048959    -0.00000034  0.22D-17  0.18D-06  2  2     0.13
   3      1.02297032    -0.03651076    -2.84409321    -0.00000495    -0.00000000  0.14D-20  0.12D-09  3  3     0.13
   4      1.02297039    -0.03651077    -2.84409322    -0.00000001    -0.00000000  0.32D-23  0.12D-12  4  4     0.13

 Norm of t1 vector:      0.00000046      S-energy:    -0.00000000      T1 diagnostic:  0.00000023
 Norm of t2 vector:      0.15155985      P-energy:    -0.03651077
                                         Alpha-Beta:  -0.03651077
                                         Alpha-Alpha:  0.00000000
                                         Beta-Beta:    0.00000000

 Spin contamination <S**2-Sz**2-Sz>     0.00000000
  Reference energy                     -2.807582444909
  RHF-RMP2 correlation energy          -0.036510773635
 !RHF-RMP2 energy                      -2.844093218544

 Starting UCCSD calculation

 ITER.      SQ.NORM     CORR.ENERGY   TOTAL ENERGY   ENERGY CHANGE        DEN1      VAR(S)    VAR(P)  DIIS     TIME
   1      1.03170395    -0.04051788    -2.84810033    -0.04051788    -0.00403317  0.64D-04  0.25D-02  1  1     0.21
   2      1.04698193    -0.04685425    -2.85443669    -0.00633636    -0.00024484  0.17D-05  0.13D-03  2  2     0.27
   3      1.05128374    -0.04817566    -2.85575811    -0.00132142    -0.00000910  0.67D-07  0.35D-05  3  3     0.32
   4      1.05155961    -0.04822477    -2.85580721    -0.00004910    -0.00000022  0.20D-07  0.70D-07  4  4     0.38
   5      1.05161202    -0.04823966    -2.85582211    -0.00001489    -0.00000000  0.44D-09  0.81D-09  5  5     0.43
   6      1.05160793    -0.04823792    -2.85582036     0.00000174    -0.00000000  0.18D-10  0.26D-10  6  6     0.48
   7      1.05160903    -0.04823824    -2.85582069    -0.00000032    -0.00000000  0.53D-12  0.18D-11  6  1     0.53

 Norm of t1 vector:      0.01543803      S-energy:    -0.00000001      T1 diagnostic:  0.00771901
                                                                       D1 diagnostic:  0.01091634
 Norm of t2 vector:      0.22665104      P-energy:    -0.04823824
                                         Alpha-Beta:  -0.04823824
                                         Alpha-Alpha:  0.00000000
                                         Beta-Beta:    0.00000000

 Doubles amplitudes (print threshold =  0.500E-01):

         I         J         SYM. A    SYM. B    A         B      T(IJ, AB) [Alpha-Beta]

         1         1         2         2         1         1     -0.11706949
         1         1         3         3         1         1     -0.11706949
         1         1         5         5         1         1     -0.11706949

 Spin contamination <S**2-Sz**2-Sz>     0.00000000

 Memory could be reduced to 4.31 Mwords without degradation in triples
 

 RESULTS
 =======

  Reference energy                     -2.807582444909
  UCCSD singles energy                 -0.000000005180
  UCCSD pair energy                    -0.048238238456
  UCCSD correlation energy             -0.048238243636
  Triples (T) contribution              0.000000000000
  Total correlation energy             -0.048238243636
 
  RHF-UCCSD energy                     -2.855820688545
  RHF-UCCSD[T] energy                  -2.855820688545
  RHF-UCCSD-T energy                   -2.855820688545
 !RHF-UCCSD(T) energy                  -2.855820688545

 Program statistics:

 Available memory in ccsd:               511999882
 Min. memory needed in ccsd:                119261
 Max. memory used in ccsd:                  119261
 Max. memory used in cckext:                158518 ( 7 integral passes)
 Max. memory used in cckint:                375569 ( 1 integral passes)



 **********************************************************************************************************************************
 DATASETS  * FILE   NREC   LENGTH (MB)   RECORD NAMES
              1      21       39.02       500      610      700      900      950      970     1000      129      960     1100   
                                          VAR    BASINP    GEOM    SYMINP    ZMAT    AOBASIS   BASIS     P2S    ABASIS      S 
                                         1400     1410     1420     1200     1210     1080     1600     1650     1300     1700   
                                           T        V       ECP      H0       H01     AOSYM     SMH    MOLCAS    ERIS     OPER   
                                         1380   
                                         JKOP   

              2       9       14.82       200      700     1000      520     4202     5202     2101     2103     2104   
                                        OPTIONS   GEOM     BASIS   MCVARS     RHF     MCSCF     RHF      RHF      RHF  

 PROGRAMS   *        TOTAL  UCCSD(T)       RHF  UCCSD(T)       RHF     MULTI       RHF  UCCSD(T)       RHF     MULTI       RHF
 CPU TIMES  *         8.88      0.60      0.30      1.03      0.09      0.36      0.33      1.26      0.08      0.47      0.32
 REAL TIME  *        11.63 SEC
 DISK USED  *       138.01 MB      
 **********************************************************************************************************************************
 SETTING CCSD(3)        =        -2.85582069  AU                              

 DO I                   =         4.00000000   

 Running procedure=IP3

1PROGRAM * RHF-SCF (OPEN SHELL)       Authors: W. Meyer, H.-J. Werner


 NUMBER OF ELECTRONS:       1+    0-    SPACE SYMMETRY=1    SPIN SYMMETRY: Doublet 
 CONVERGENCE THRESHOLDS:    1.00E-05 (Density)    1.00E-07 (Energy)
 MAX. NUMBER OF ITERATIONS:       60
 INTERPOLATION TYPE:            DIIS
 INTERPOLATION STEPS:              2 (START)      1 (STEP)
 LEVEL SHIFTS:                 -0.30 (CLOSED)  0.00 (OPEN) 



 Orbital guess generated from atomic densities. Full valence occupancy:    1   1   1   0   1   0   0   0


 Molecular orbital dump at record        2105.2

 ITERATION    DDIFF          GRAD             ENERGY        2-EL.EN.            DIPOLE MOMENTS         DIIS   ORB.
    1      0.000D+00      0.000D+00        -1.59084429      0.000000    0.00000    0.00000    0.00000    0    start
    2      0.000D+00      0.157D-01        -1.63358305     -0.000000    0.00000    0.00000    0.00000    1    diag,B
    3      0.868D-02      0.400D-02        -1.63631322     -0.000000    0.00000    0.00000    0.00000    2    diag,B
    4      0.384D-02      0.114D-03        -1.63631457      0.000000    0.00000    0.00000    0.00000    3    diag,B
    5      0.166D-03      0.184D-05        -1.63631457     -0.000000    0.00000    0.00000    0.00000    4    diag,B
    6      0.272D-05      0.148D-06        -1.63631457      0.000000    0.00000    0.00000    0.00000    0    orth

 Final alpha occupancy:   1   0   0   0   0   0   0   0
 Final beta  occupancy:   0   0   0   0   0   0   0   0

 !RHF STATE 1.1 Energy                 -1.636314566785
 Nuclear energy                         0.00000000
 One-electron energy                   -1.63631457
 Two-electron energy                    0.00000000
 Virial quotient                       -4.13957668
 !RHF STATE 1.1 Dipole moment           0.00000000     0.00000000     0.00000000
 Dipole moment /Debye                   0.00000000     0.00000000     0.00000000

 Orbital energies:

         1.1          2.1          3.1
     -1.636315    -0.562468    -0.562468

         1.2          2.2
     -0.972136    -0.424022

         1.3          2.3
     -0.972136    -0.424022

         1.4          2.4
     -0.562468    -0.300647

         1.5          2.5
     -0.972136    -0.424022

         1.6          2.6
     -0.562468    -0.300647

         1.7          2.7
     -0.562468    -0.300647

         1.8          2.8
     -0.272000     0.017721

 HOMO      1.1    -1.636315 =     -44.5264eV
 LUMO      1.2    -0.972136 =     -26.4532eV
 LUMO-HOMO         0.664178 =      18.0732eV


 **********************************************************************************************************************************
 DATASETS  * FILE   NREC   LENGTH (MB)   RECORD NAMES
              1      21       39.02       500      610      700      900      950      970     1000      129      960     1100   
                                          VAR    BASINP    GEOM    SYMINP    ZMAT    AOBASIS   BASIS     P2S    ABASIS      S 
                                         1400     1410     1420     1200     1210     1080     1600     1650     1300     1700   
                                           T        V       ECP      H0       H01     AOSYM     SMH    MOLCAS    ERIS     OPER   
                                         1380   
                                         JKOP   

              2      10       17.53       200      700     1000      520     4202     5202     2101     2103     2104     2105   
                                        OPTIONS   GEOM     BASIS   MCVARS     RHF     MCSCF     RHF      RHF      RHF      RHF  

 PROGRAMS   *        TOTAL       RHF  UCCSD(T)       RHF  UCCSD(T)       RHF     MULTI       RHF  UCCSD(T)       RHF     MULTI
 CPU TIMES  *         9.22      0.34      0.60      0.30      1.03      0.09      0.36      0.33      1.26      0.08      0.47
 REAL TIME  *        12.06 SEC
 DISK USED  *       138.01 MB      
 **********************************************************************************************************************************
 SETTING SCF(4)         =        -1.63631457  AU                              
 SETTING _CC_NORM_MAX   =         2.00000000                                  


1PROGRAM * CCSD (Unrestricted open-shell coupled cluster)     Authors: C. Hampel, H.-J. Werner, 1991, M. Deegan, P.J. Knowles, 1992


 Convergence thresholds:  THRVAR = 1.00D-08  THRDEN = 1.00D-06

 CCSD(T)     terms to be evaluated (factor= 1.000)


 Number of active  orbitals:        1 (   1   0   0   0   0   0   0   0 )
 Number of external orbitals:     161 (  39  27  27  11  27  11  11   8 )

 Memory could be reduced to 4.29 Mwords without degradation in triples

 Number of N-1 electron functions:               1
 Number of N-2 electron functions:               0
 Number of singly external CSFs:                40
 Number of doubly external CSFs:                 0
 Total number of CSFs:                          40

 Molecular orbitals read from record     2105.2  Type=RHF/CANONICAL (state 1.1)

 Integral transformation finished. Total CPU:   0.11 sec, npass=  1  Memory used:   0.38 MW

 Starting RMP2 calculation

 ITER.      SQ.NORM     CORR.ENERGY   TOTAL ENERGY   ENERGY CHANGE        DEN1      VAR(S)    VAR(P)  DIIS     TIME
   1      1.00000000    -0.00000000    -1.63631457    -0.00000000    -0.00000000  0.34D-16  0.00D+00  1  1     0.11

 Norm of t1 vector:      0.00000009      S-energy:    -0.00000000      T1 diagnostic:  0.00000006
 Norm of t2 vector:      0.00000000      P-energy:     0.00000000
                                         Alpha-Beta:   0.00000000
                                         Alpha-Alpha:  0.00000000
                                         Beta-Beta:    0.00000000

 Spin contamination <S**2-Sz**2-Sz>     0.00000000
  Reference energy                     -1.636314566785
  RHF-RMP2 correlation energy          -0.000000000000
 !RHF-RMP2 energy                      -1.636314566785

 Starting UCCSD calculation

 ITER.      SQ.NORM     CORR.ENERGY   TOTAL ENERGY   ENERGY CHANGE        DEN1      VAR(S)    VAR(P)  DIIS     TIME
   1      1.00000000    -0.00000000    -1.63631457    -0.00000000    -0.00000000  0.30D-15  0.00D+00  1  1     0.12

 Norm of t1 vector:      0.00000010      S-energy:    -0.00000000      T1 diagnostic:  0.00000007
                                                                       D1 diagnostic:  0.00000007
 Norm of t2 vector:      0.00000000      P-energy:     0.00000000
                                         Alpha-Beta:   0.00000000
                                         Alpha-Alpha:  0.00000000
                                         Beta-Beta:    0.00000000

 Spin contamination <S**2-Sz**2-Sz>     0.00000000

 Memory could be reduced to 4.37 Mwords without degradation in triples
 

 RESULTS
 =======

  Reference energy                     -1.636314566785
  UCCSD singles energy                 -0.000000000000
  UCCSD pair energy                     0.000000000000
  UCCSD correlation energy             -0.000000000000
  Triples (T) contribution              0.000000000000
  Total correlation energy             -0.000000000000
 
  RHF-UCCSD energy                     -1.636314566785
  RHF-UCCSD[T] energy                  -1.636314566785
  RHF-UCCSD-T energy                   -1.636314566785
 !RHF-UCCSD(T) energy                  -1.636314566785

 Program statistics:

 Available memory in ccsd:               511999882
 Min. memory needed in ccsd:                112113
 Max. memory used in ccsd:                  112113
 Max. memory used in cckext:                149906 ( 1 integral passes)
 Max. memory used in cckint:                375651 ( 1 integral passes)



 **********************************************************************************************************************************
 DATASETS  * FILE   NREC   LENGTH (MB)   RECORD NAMES
              1      21       39.02       500      610      700      900      950      970     1000      129      960     1100   
                                          VAR    BASINP    GEOM    SYMINP    ZMAT    AOBASIS   BASIS     P2S    ABASIS      S 
                                         1400     1410     1420     1200     1210     1080     1600     1650     1300     1700   
                                           T        V       ECP      H0       H01     AOSYM     SMH    MOLCAS    ERIS     OPER   
                                         1380   
                                         JKOP   

              2      10       17.53       200      700     1000      520     4202     5202     2101     2103     2104     2105   
                                        OPTIONS   GEOM     BASIS   MCVARS     RHF     MCSCF     RHF      RHF      RHF      RHF  

 PROGRAMS   *        TOTAL  UCCSD(T)       RHF  UCCSD(T)       RHF  UCCSD(T)       RHF     MULTI       RHF  UCCSD(T)       RHF
 CPU TIMES  *         9.43      0.20      0.34      0.60      0.30      1.03      0.09      0.36      0.33      1.26      0.08
 REAL TIME  *        12.41 SEC
 DISK USED  *       138.01 MB      
 **********************************************************************************************************************************
 SETTING CCSD(4)        =        -1.63631457  AU                              

 DO I                   =         5.00000000   

 Running procedure=EA

1PROGRAM * RHF-SCF (OPEN SHELL)       Authors: W. Meyer, H.-J. Werner


 NUMBER OF ELECTRONS:       4+    1-    SPACE SYMMETRY=8    SPIN SYMMETRY: Quartet 
 CONVERGENCE THRESHOLDS:    1.00E-05 (Density)    1.00E-07 (Energy)
 MAX. NUMBER OF ITERATIONS:       60
 INTERPOLATION TYPE:            DIIS
 INTERPOLATION STEPS:              2 (START)      1 (STEP)
 LEVEL SHIFTS:                 -0.30 (CLOSED)  0.00 (OPEN) 


 Singly occupied orbitals:      1.2       1.3       1.5
 Orbital guess generated from atomic densities. Full valence occupancy:    1   1   1   0   1   0   0   0


 Molecular orbital dump at record        2106.2

 ITERATION    DDIFF          GRAD             ENERGY        2-EL.EN.            DIPOLE MOMENTS         DIIS   ORB.
    1      0.000D+00      0.000D+00        -3.69646402      6.024844    0.00000    0.00000    0.00000    0    start
    2      0.000D+00      0.329D-02        -3.70075361      5.856070    0.00000    0.00000    0.00000    1    diag,B
    3      0.272D-02      0.116D-02        -3.70135545      5.825660    0.00000    0.00000    0.00000    2    diag,B
    4      0.159D-02      0.491D-03        -3.70150915      5.820842    0.00000    0.00000    0.00000    3    diag,B
    5      0.882D-03      0.105D-03        -3.70151800      5.823010    0.00000    0.00000    0.00000    4    diag,B
    6      0.284D-03      0.157D-04        -3.70151819      5.823456    0.00000    0.00000    0.00000    5    diag,B
    7      0.883D-04      0.159D-05        -3.70151819      5.823432    0.00000    0.00000    0.00000    6    fixocc
    8      0.384D-05      0.543D-06        -3.70151819      5.823424    0.00000    0.00000    0.00000    0    orth

 Final alpha occupancy:   1   1   1   0   1   0   0   0
 Final beta  occupancy:   1   0   0   0   0   0   0   0

 !RHF STATE 1.8 Energy                 -3.701518193748
 Nuclear energy                         0.00000000
 One-electron energy                   -6.61323019
 Two-electron energy                    2.91171199
 Virial quotient                       -2.62192745
 !RHF STATE 1.8 Dipole moment           0.00000000     0.00000000     0.00000000
 Dipole moment /Debye                   0.00000000     0.00000000     0.00000000

 Orbital energies:

         1.1          2.1          3.1
     -0.301934     0.178195     0.276339

         1.2          2.2          3.2
     -0.061978     0.164702     0.425017

         1.3          2.3          3.3
     -0.061978     0.164702     0.425017

         1.4          2.4
      0.276339     0.555149

         1.5          2.5          3.5
     -0.061978     0.164702     0.425017

         1.6          2.6
      0.276339     0.555149

         1.7          2.7
      0.276339     0.555149

         1.8          2.8
      0.444415     0.966194

 HOMO      1.2    -0.061978 =      -1.6865eV
 LUMO      2.2     0.164702 =       4.4818eV
 LUMO-HOMO         0.226679 =       6.1683eV


 **********************************************************************************************************************************
 DATASETS  * FILE   NREC   LENGTH (MB)   RECORD NAMES
              1      21       39.02       500      610      700      900      950      970     1000      129      960     1100   
                                          VAR    BASINP    GEOM    SYMINP    ZMAT    AOBASIS   BASIS     P2S    ABASIS      S 
                                         1400     1410     1420     1200     1210     1080     1600     1650     1300     1700   
                                           T        V       ECP      H0       H01     AOSYM     SMH    MOLCAS    ERIS     OPER   
                                         1380   
                                         JKOP   

              2      11       20.20       200      700     1000      520     4202     5202     2101     2103     2104     2105   
                                        OPTIONS   GEOM     BASIS   MCVARS     RHF     MCSCF     RHF      RHF      RHF      RHF  
                                         2106   
                                          RHF  

 PROGRAMS   *        TOTAL       RHF  UCCSD(T)       RHF  UCCSD(T)       RHF  UCCSD(T)       RHF     MULTI       RHF  UCCSD(T)
 CPU TIMES  *         9.88      0.44      0.20      0.34      0.60      0.30      1.03      0.09      0.36      0.33      1.26
 REAL TIME  *        12.96 SEC
 DISK USED  *       138.01 MB      
 **********************************************************************************************************************************
 SETTING SCF(5)         =        -3.70151819  AU                              
 SETTING _CC_NORM_MAX   =         2.00000000                                  


1PROGRAM * CCSD (Unrestricted open-shell coupled cluster)     Authors: C. Hampel, H.-J. Werner, 1991, M. Deegan, P.J. Knowles, 1992


 Convergence thresholds:  THRVAR = 1.00D-08  THRDEN = 1.00D-06

 CCSD(T)     terms to be evaluated (factor= 1.000)


 Number of closed-shell orbitals:   1 (   1   0   0   0   0   0   0   0 )
 Number of active  orbitals:        3 (   0   1   1   0   1   0   0   0 )
 Number of external orbitals:     158 (  39  26  26  11  26  11  11   8 )

 Memory could be reduced to 5.93 Mwords without degradation in triples

 Number of N-1 electron functions:               5
 Number of N-2 electron functions:              10
 Number of singly external CSFs:               159
 Number of doubly external CSFs:             24510
 Total number of CSFs:                       24669

 Molecular orbitals read from record     2106.2  Type=RHF/CANONICAL (state 1.8)

 Integral transformation finished. Total CPU:   0.17 sec, npass=  1  Memory used:   0.77 MW

 Starting RMP2 calculation

 ITER.      SQ.NORM     CORR.ENERGY   TOTAL ENERGY   ENERGY CHANGE        DEN1      VAR(S)    VAR(P)  DIIS     TIME
   1      1.05748189    -0.08491867    -3.78643687    -0.08491867    -0.00093164  0.80D-06  0.74D-03  1  1     0.17
   2      1.05956491    -0.08600255    -3.78752075    -0.00108388    -0.00000595  0.65D-08  0.55D-05  2  2     0.17
   3      1.05967825    -0.08603443    -3.78755263    -0.00003188    -0.00000005  0.66D-10  0.51D-07  3  3     0.17
   4      1.05968336    -0.08603557    -3.78755376    -0.00000114    -0.00000000  0.35D-12  0.44D-09  4  4     0.17
   5      1.05968350    -0.08603558    -3.78755377    -0.00000001    -0.00000000  0.17D-14  0.31D-11  5  5     0.17

 Norm of t1 vector:      0.01023635      S-energy:    -0.00017415      T1 diagnostic:  0.00020487
 Norm of t2 vector:      0.24408753      P-energy:    -0.08586143
                                         Alpha-Beta:  -0.06257503
                                         Alpha-Alpha: -0.02328640
                                         Beta-Beta:    0.00000000

 Spin contamination <S**2-Sz**2-Sz>     0.00062123
  Reference energy                     -3.701518193748
  RHF-RMP2 correlation energy          -0.086035576540
 !RHF-RMP2 energy                      -3.787553770288

 Starting UCCSD calculation

 ITER.      SQ.NORM     CORR.ENERGY   TOTAL ENERGY   ENERGY CHANGE        DEN1      VAR(S)    VAR(P)  DIIS     TIME
   1      1.07129149    -0.09192567    -3.79344387    -0.09192567    -0.00480992  0.31D-03  0.32D-02  1  1     0.39
   2      1.08446874    -0.09776279    -3.79928098    -0.00583712    -0.00015941  0.11D-04  0.90D-04  2  2     0.62
   3      1.08633619    -0.09827811    -3.79979630    -0.00051532    -0.00000995  0.26D-05  0.58D-05  3  3     0.82
   4      1.08675151    -0.09837200    -3.79989019    -0.00009389    -0.00000133  0.13D-05  0.66D-06  4  4     1.02
   5      1.08686835    -0.09838684    -3.79990504    -0.00001485    -0.00000027  0.42D-06  0.90D-07  5  5     1.21
   6      1.08690189    -0.09838601    -3.79990420     0.00000083    -0.00000006  0.10D-06  0.16D-07  6  6     1.38
   7      1.08692255    -0.09838745    -3.79990564    -0.00000144    -0.00000001  0.10D-07  0.35D-08  6  1     1.53
   8      1.08692862    -0.09838744    -3.79990564     0.00000001    -0.00000000  0.24D-09  0.42D-09  6  2     1.67

 Norm of t1 vector:      0.02722203      S-energy:    -0.00015381      T1 diagnostic:  0.00810248
                                                                       D1 diagnostic:  0.01216610
 Norm of t2 vector:      0.29357722      P-energy:    -0.09823364
                                         Alpha-Beta:  -0.07268281
                                         Alpha-Alpha: -0.02555083
                                         Beta-Beta:    0.00000000

 Doubles amplitudes (print threshold =  0.500E-01):

         I         J         SYM. A    SYM. B    A         B      T(IJ, AB) [Alpha-Beta]

         2         1         1         2         5         1     -0.05050195
         3         1         1         3         6         1      0.05486873

 Spin contamination <S**2-Sz**2-Sz>     0.00673440

 Memory could be reduced to 6.17 Mwords without degradation in triples
 

 RESULTS
 =======

  Reference energy                     -3.701518193748
  UCCSD singles energy                 -0.000153806482
  UCCSD pair energy                    -0.098233636788
  UCCSD correlation energy             -0.098387443269
  Triples (T) contribution             -0.005800139790
  Total correlation energy             -0.104187583059
 
  RHF-UCCSD energy                     -3.799905637017
  RHF-UCCSD[T] energy                  -3.805718848920
  RHF-UCCSD-T energy                   -3.805723638406
 !RHF-UCCSD(T) energy                  -3.805705776807

 Program statistics:

 Available memory in ccsd:               511999732
 Min. memory needed in ccsd:                192191
 Max. memory used in ccsd:                  213579
 Max. memory used in cckext:                221053 ( 8 integral passes)
 Max. memory used in cckint:                774968 ( 1 integral passes)



 **********************************************************************************************************************************
 DATASETS  * FILE   NREC   LENGTH (MB)   RECORD NAMES
              1      21       39.02       500      610      700      900      950      970     1000      129      960     1100   
                                          VAR    BASINP    GEOM    SYMINP    ZMAT    AOBASIS   BASIS     P2S    ABASIS      S 
                                         1400     1410     1420     1200     1210     1080     1600     1650     1300     1700   
                                           T        V       ECP      H0       H01     AOSYM     SMH    MOLCAS    ERIS     OPER   
                                         1380   
                                         JKOP   

              2      11       20.20       200      700     1000      520     4202     5202     2101     2103     2104     2105   
                                        OPTIONS   GEOM     BASIS   MCVARS     RHF     MCSCF     RHF      RHF      RHF      RHF  
                                         2106   
                                          RHF  

 PROGRAMS   *        TOTAL  UCCSD(T)       RHF  UCCSD(T)       RHF  UCCSD(T)       RHF  UCCSD(T)       RHF     MULTI       RHF
 CPU TIMES  *        11.78      1.90      0.44      0.20      0.34      0.60      0.30      1.03      0.09      0.36      0.33
 REAL TIME  *        15.20 SEC
 DISK USED  *       138.01 MB      
 **********************************************************************************************************************************
 SETTING CCSD(5)        =        -3.80570578  AU                              
 Output type csv         
                                                                                                                                                                                                                                                                

      SCF,CCSD
   -3.66549302,   -3.75364463
   -3.38384425,   -3.45394054
   -2.80758244,   -2.85582069
   -1.63631457,   -1.63631457
   -3.70151819,   -3.80570578
                                                  

        UCCSD(T)        RHF-SCF         UCCSD(T)        RHF-SCF         UCCSD(T)        RHF-SCF         UCCSD(T)        RHF-SCF 
     -3.80570578     -3.70151819     -1.63631457     -1.63631457     -2.85582069     -2.80758244     -3.45394054     -3.38384425
 **********************************************************************************************************************************
 Variable memory released
