
 Primary working directories    : /tmp/cmelton
 Secondary working directories  : /tmp/cmelton
 Wavefunction directory         : /remote/cmelton/wfu/
 Main file repository           : /tmp/cmelton/

 SHA1      : 4c1979699e6aeda0524d0210415ba82a958648b0
 NAME      : 2012.1.39
 ARCHNAME  : Linux/x86_64
 FC        : /projects/sems/install/rhel6-x86_64/sems/compiler/intel/16.0.1/base/bin/ifort
 FCVERSION : 16.0.1
 BLASLIB   : -L/projects/sems/install/rhel6-x86_64/sems/compiler/intel/16.0.1/base/compilers_and_libraries_2016.1.150/linux/mkl/lib/intel64 -lmkl_intel_ilp64 -lmkl_sequential -lmkl_core
 id        : sandiacon

 Nodes             nprocs
 s989256.sandia.gov    1

 Using customized tuning parameters: mindgm=7; mindgv=16; mindgc=1; mindgr=1; noblas=0; minvec=7
 default implementation of scratch files=df  

 ***,Calculation for Be atom, singlet and triplet
 memory,512,m
 gthresh,twoint=1.0E-12
 geometry={
 1
 Si
 Si  0.0 0.0 0.0
 }
 
 basis={
 ecp,Si,10,2,0
 3
   1  ,  3.54632218 ,   4.00000000
   3  ,  4.10257346 ,  14.18528871
   2  ,  3.03189783 , -14.55031990
 2
   2  ,  7.40540967 ,   6.03326125
   2  ,  2.38741220 ,  23.08201380
 2
   2  ,  2.17523625 ,   3.34088948
   2  ,  1.94078734 ,  10.10971550
 Including file /remote/cmelton/data/corrECP/2nd_row/aug-cc-pVTZ.basis
 }
 
 Including file /remote/cmelton/data/corrECP/2nd_row/Si/Ne-core/states.proc
 
 do i=1,5
 if (i.eq.1) then
     GS
 else if (i.eq.2) then
     IP1
 else if (i.eq.3) then
     IP2
 else if (i.eq.4) then
     IP3
 else if (i.eq.5) then
     EA
 endif
 scf(i)=energy
 _CC_NORM_MAX=2.0
 {uccsd(t),maxit=400;core}
 ccsd(i)=energy
 enddo
 
 table,scf,ccsd
 save
 type,csv

 Variables initialized (782), CPU time= 0.00 sec
 Commands  initialized (547), CPU time= 0.01 sec, 517 directives.
 Default parameters read. Elapsed time= 0.33 sec

 Checking input...
 Passed
1


                                         ***  PROGRAM SYSTEM MOLPRO  ***
                         Copyright, University College Cardiff Consultants Limited, 2008

                                    Version 2012.1 linked Aug  2 2016 14:07:26


 **********************************************************************************************************************************
 LABEL *   Calculation for Be atom, singlet and triplet                                  
 Linux-3.10.0-693.21.1.el7.x86_64/s989256.sandia.gov(x86_64) 64 bit serial version       DATE: 26-Apr-18          TIME: 15:25:06  
 **********************************************************************************************************************************

 SHA1:             4c1979699e6aeda0524d0210415ba82a958648b0
 **********************************************************************************************************************************

 THRESHOLDS:

 ZERO    =  1.00D-12  ONEINT  =  1.00D-12  TWOINT  =  1.00D-12  PREFAC  =  1.00D-14  LOCALI  =  1.00D-09  EORDER  =  1.00D-04
 ENERGY  =  0.00D+00  ETEST   =  0.00D+00  EDENS   =  0.00D+00  THRDEDEF=  1.00D-06  GRADIENT=  1.00D-02  STEP    =  1.00D-03
 ORBITAL =  1.00D-05  CIVEC   =  1.00D-05  COEFF   =  1.00D-04  PRINTCI =  5.00D-02  PUNCHCI =  9.90D+01  OPTGRAD =  3.00D-04
 OPTENERG=  1.00D-06  OPTSTEP =  3.00D-04  THRGRAD =  1.00D-10  COMPRESS=  1.00D-11  VARMIN  =  1.00D-07  VARMAX  =  1.00D-03
 THRDOUB =  0.00D+00  THRDIV  =  1.00D-05  THRRED  =  1.00D-07  THRPSP  =  1.00D+00  THRDC   =  1.00D-10  THRCS   =  1.00D-10
 THRNRM  =  1.00D-08  THREQ   =  0.00D+00  THRDE   =  1.00D+00  THRREF  =  1.00D-05  SPARFAC =  1.00D+00  THRDLP  =  1.00D-07
 THRDIA  =  1.00D-10  THRDLS  =  1.00D-07  THRGPS  =  0.00D+00  THRKEX  =  0.00D+00  THRDIS  =  2.00D-01  THRVAR  =  1.00D-10
 THRLOC  =  1.00D-06  THRGAP  =  1.00D-06  THRLOCT = -1.00D+00  THRGAPT = -1.00D+00  THRORB  =  1.00D-06  THRMLTP =  0.00D+00
 THRCPQCI=  1.00D-10  KEXTA   =  0.00D+00  THRCOARS=  0.00D+00  SYMTOL  =  1.00D-06  GRADTOL =  1.00D-06  THROVL  =  1.00D-08
 THRORTH =  1.00D-08  GRID    =  1.00D-06  GRIDMAX =  1.00D-03  DTMAX   =  0.00D+00  THROCCDE=  1.00D-01  THROCCDE=  1.00D-01



Geometry recognized as XYZ


 Variable memory set to  512000000 words,  buffer space   230000 words

 SETTING BASIS          =    USERDEF

 DO I                   =         1.00000000   

 Running procedure=GS


 Recomputing integrals since basis changed


 Using spherical harmonics


1PROGRAM * SEWARD (Integral evaluation for generally contracted gaussian basis sets)     Author: Roland Lindh, 1990

 Geometry written to block  1 of record 700

 Orientation using atomic masses  
 Molecule type: Atom
 Symmetry elements: X,Y,Z
 Rotational constants:       0.0000000      0.0000000      0.0000000 GHz  (calculated with average atomic masses)

 Point group  D2h 



 ATOMIC COORDINATES

 NR  ATOM    CHARGE       X              Y              Z

   1  SI      4.00    0.000000000    0.000000000    0.000000000

 NUCLEAR CHARGE:                    4
 NUMBER OF PRIMITIVE AOS:          84
 NUMBER OF SYMMETRY AOS:           75
 NUMBER OF CONTRACTIONS:           75   (  22Ag  +  14B3u +  14B2u +   3B1g +  14B1u +   3B2g +   3B3g +   2Au  )
 NUMBER OF CORE ORBITALS:           0   (   0Ag  +   0B3u +   0B2u +   0B1g +   0B1u +   0B2g +   0B3g +   0Au  )
 NUMBER OF VALENCE ORBITALS:        4   (   1Ag  +   1B3u +   1B2u +   0B1g +   1B1u +   0B2g +   0B3g +   0Au  )


 NUCLEAR REPULSION ENERGY    0.00000000

 EXTRA SYMMETRY OF AOS IN SYMMETRY 1:   1 1 1 1 1 1 1 1 1 1   1 1 1 1 1 1 2 3 2 3   2 3
 EXTRA SYMMETRY OF AOS IN SYMMETRY 2:   1 1 1 1 1 1 1 1 1 1   2 3 2 3
 EXTRA SYMMETRY OF AOS IN SYMMETRY 3:   1 1 1 1 1 1 1 1 1 1   2 3 2 3
 EXTRA SYMMETRY OF AOS IN SYMMETRY 5:   1 1 1 1 1 1 1 1 1 1   2 3 2 3

 Eigenvalues of metric

         1 0.212E-02 0.473E-02 0.960E-02 0.210E-01 0.428E-01 0.713E-01 0.123E+00 0.211E+00
         2 0.198E-01 0.643E-01 0.133E+00 0.245E+00 0.411E+00 0.411E+00 0.457E+00 0.735E+00
         3 0.198E-01 0.643E-01 0.133E+00 0.245E+00 0.411E+00 0.411E+00 0.457E+00 0.735E+00
         4 0.214E+00 0.823E+00 0.196E+01
         5 0.198E-01 0.643E-01 0.133E+00 0.245E+00 0.411E+00 0.411E+00 0.457E+00 0.735E+00
         6 0.214E+00 0.823E+00 0.196E+01
         7 0.214E+00 0.823E+00 0.196E+01
         8 0.411E+00 0.159E+01


 Contracted 2-electron integrals neglected if value below      1.0D-12
 AO integral compression algorithm  1   Integral accuracy      1.0D-12

     5.243 MB (compressed) written to integral file ( 58.8%)


 NUMBER OF SORTED TWO-ELECTRON INTEGRALS:     592921.     BUFFER LENGTH:  32768
 NUMBER OF SEGMENTS:   1  SEGMENT LENGTH:     592921      RECORD LENGTH: 524288

 Memory used in sort:       1.15 MW

 SORT1 READ     1164973. AND WROTE      430610. INTEGRALS IN      2 RECORDS. CPU TIME:     0.02 SEC, REAL TIME:     0.03 SEC
 SORT2 READ      430610. AND WROTE      592921. INTEGRALS IN     20 RECORDS. CPU TIME:     0.03 SEC, REAL TIME:     0.05 SEC

 FILE SIZES:   FILE 1:    12.9 MBYTE,  FILE 4:     8.4 MBYTE,   TOTAL:     21.3 MBYTE

 OPERATOR DM      FOR CENTER  0  COORDINATES:    0.000000    0.000000    0.000000


 **********************************************************************************************************************************
 DATASETS  * FILE   NREC   LENGTH (MB)   RECORD NAMES
              1      20        9.88       500      610      700      900      950      970     1000      129      960     1100   
                                          VAR    BASINP    GEOM    SYMINP    ZMAT    AOBASIS   BASIS     P2S    ABASIS      S 
                                         1400     1410     1420     1200     1210     1080     1600     1650     1300     1700   
                                           T        V       ECP      H0       H01     AOSYM     SMH    MOLCAS    ERIS     OPER   

 PROGRAMS   *        TOTAL       INT
 CPU TIMES  *         0.76      0.59
 REAL TIME  *         1.60 SEC
 DISK USED  *        22.92 MB      
 **********************************************************************************************************************************

1PROGRAM * RHF-SCF (OPEN SHELL)       Authors: W. Meyer, H.-J. Werner


 NUMBER OF ELECTRONS:       3+    1-    SPACE SYMMETRY=4    SPIN SYMMETRY: Triplet 
 CONVERGENCE THRESHOLDS:    1.00E-05 (Density)    1.00E-07 (Energy)
 MAX. NUMBER OF ITERATIONS:       60
 INTERPOLATION TYPE:            DIIS
 INTERPOLATION STEPS:              2 (START)      1 (STEP)
 LEVEL SHIFTS:                 -0.30 (CLOSED)  0.00 (OPEN) 


 Singly occupied orbitals:      1.2       1.3
 Orbital guess generated from atomic densities. Full valence occupancy:    1   1   1   0   1   0   0   0


 Molecular orbital dump at record        4202.2

 ITERATION    DDIFF          GRAD             ENERGY        2-EL.EN.            DIPOLE MOMENTS         DIIS   ORB.
    1      0.000D+00      0.000D+00        -3.65231524      3.758141    0.00000    0.00000    0.00000    0    start
    2      0.000D+00      0.554D-02        -3.66359232      3.930365    0.00000    0.00000    0.00000    1    diag,B
    3      0.628D-02      0.143D-02        -3.66462401      3.971818    0.00000    0.00000    0.00000    2    diag,B
    4      0.204D-02      0.615D-03        -3.66473721      3.980652    0.00000    0.00000    0.00000    3    diag,B
    5      0.109D-02      0.116D-03        -3.66473935      3.979760    0.00000    0.00000    0.00000    4    diag,B
    6      0.449D-03      0.160D-04        -3.66473940      3.979888    0.00000    0.00000    0.00000    5    diag,B
    7      0.311D-04      0.511D-05        -3.66473940      3.979801    0.00000    0.00000    0.00000    6    fixocc
    8      0.168D-04      0.605D-06        -3.66473940      3.979816    0.00000    0.00000    0.00000    7    diag,B
    9      0.257D-05      0.571D-07        -3.66473940      3.979817    0.00000    0.00000    0.00000    0    orth

 Final alpha occupancy:   1   1   1   0   0   0   0   0
 Final beta  occupancy:   1   0   0   0   0   0   0   0

 !RHF STATE 1.4 Energy                 -3.664739404574
 Nuclear energy                         0.00000000
 One-electron energy                   -5.65464779
 Two-electron energy                    1.98990838
 Virial quotient                       -2.78267892
 !RHF STATE 1.4 Dipole moment           0.00000000     0.00000000     0.00000000
 Dipole moment /Debye                   0.00000000     0.00000000     0.00000000

 Orbital energies:

         1.1          2.1          3.1
     -0.540552     0.063401     0.147838

         1.2          2.2          3.2
     -0.296863     0.070712     0.433962

         1.3          2.3          3.3
     -0.296863     0.070712     0.433962

         1.4          2.4
      0.147838     0.432956

         1.5          2.5
     -0.017851     0.080096

         1.6          2.6
      0.150058     0.443330

         1.7          2.7
      0.150058     0.443330

         1.8          2.8
      0.488839     1.424405

 HOMO      1.2    -0.296863 =      -8.0781eV
 LUMO      1.5    -0.017851 =      -0.4857eV
 LUMO-HOMO         0.279013 =       7.5923eV


 **********************************************************************************************************************************
 DATASETS  * FILE   NREC   LENGTH (MB)   RECORD NAMES
              1      20        9.88       500      610      700      900      950      970     1000      129      960     1100   
                                          VAR    BASINP    GEOM    SYMINP    ZMAT    AOBASIS   BASIS     P2S    ABASIS      S 
                                         1400     1410     1420     1200     1210     1080     1600     1650     1300     1700   
                                           T        V       ECP      H0       H01     AOSYM     SMH    MOLCAS    ERIS     OPER   

              2       5        4.08       200      700     1000      520     4202   
                                        OPTIONS   GEOM     BASIS   MCVARS     RHF  

 PROGRAMS   *        TOTAL       RHF       INT
 CPU TIMES  *         0.87      0.11      0.59
 REAL TIME  *         1.86 SEC
 DISK USED  *        22.92 MB      
 **********************************************************************************************************************************

1PROGRAM * MULTI (Direct Multiconfiguration SCF)       Authors: P.J. Knowles, H.-J. Werner (1984)     S.T. Elbert (1988)


 Number of closed-shell orbitals:   1 (   1   0   0   0   0   0   0   0 )
 Number of active  orbitals:        3 (   0   1   1   0   1   0   0   0 )
 Number of external orbitals:      71 (  21  13  13   3  13   3   3   2 )

 State symmetry 1

 Number of electrons:     2    Spin symmetry=Triplet   Space symmetry=4
 Number of states:        1
 Number of CSFs:          1   (1 determinants, 3 intermediate states)

 State symmetry 2

 Number of electrons:     2    Spin symmetry=Triplet   Space symmetry=6
 Number of states:        1
 Number of CSFs:          1   (1 determinants, 3 intermediate states)

 State symmetry 3

 Number of electrons:     2    Spin symmetry=Triplet   Space symmetry=7
 Number of states:        1
 Number of CSFs:          1   (1 determinants, 3 intermediate states)

 Molecular orbitals read from record     4202.2  Type=RHF/CANONICAL (state 1.4)
 *** IN SYMMETRY 1 ORBITAL  1 SYMMETRY CONTAMINATION OF 0.639D-02 HAS BEEN REMOVED

 EXTRA SYMMETRY OF MOS IN SYMMETRY 1:   1 1 3 2 1 3 2 2 3 1   1 1 1 1 1 1 1 1 1 1   1 1
 *** IN SYMMETRY 2 ORBITAL  1 SYMMETRY CONTAMINATION OF 0.168D-03 HAS BEEN REMOVED
 EXTRA SYMMETRY OF MOS IN SYMMETRY 2:   1 1 1 2 3 2 3 1 1 1   1 1 1 1
 *** IN SYMMETRY 3 ORBITAL  1 SYMMETRY CONTAMINATION OF 0.168D-03 HAS BEEN REMOVED
 EXTRA SYMMETRY OF MOS IN SYMMETRY 3:   1 1 1 2 3 2 3 1 1 1   1 1 1 1
 *** IN SYMMETRY 5 ORBITAL  1 SYMMETRY CONTAMINATION OF 0.333D-02 HAS BEEN REMOVED
 EXTRA SYMMETRY OF MOS IN SYMMETRY 5:   1 1 1 2 3 2 3 1 1 1   1 1 1 1

 Wavefunction dump at record             5202.2

 Convergence thresholds  0.10E-01 (gradient)  0.10E-05 (energy)  0.10E-02 (step length)

 Weight factors for state symmetry  1:    0.33333
 Weight factors for state symmetry  2:    0.33333
 Weight factors for state symmetry  3:    0.33333

 Number of orbital rotations:       60   (     0 Core/Active     21 Core/Virtual   0 Active/Active     39 Active/Virtual)
 Total number of variables:         63


 ITER. MIC  NCI  NEG     ENERGY(VAR)     ENERGY(PROJ)   ENERGY CHANGE     GRAD(0)  GRAD(ORB)   GRAD(CI)     STEP       TIME

   1   18   12    0      -3.64782202      -3.66467621   -0.01685419    0.05550709 0.00000000 0.00000000  0.32D+00      0.04
   2   15   12    0      -3.66465887      -3.66466763   -0.00000876    0.00285166 0.00000000 0.00000000  0.50D-02      0.06
   3   13   12    0      -3.66466763      -3.66466763   -0.00000000    0.00000306 0.00000000 0.00000000  0.42D-05      0.08

 ** WVFN ****  CONVERGENCE REACHED, FINAL GRADIENT:  0.32D-11



 Results for state 1.4
 =====================

 !MCSCF STATE 1.4 Energy               -3.664667631663
 Nuclear energy                         0.00000000
 Kinetic energy                         1.31696926
 One electron energy                   -5.65475049
 Two electron energy                    1.99008286
 Virial ratio                           3.78265237

 !MCSCF STATE 1.4 Dipole moment         0.00000000     0.00000000     0.00000000
 Dipole moment /Debye                   0.00000000     0.00000000     0.00000000



 Results for state 1.6
 =====================

 !MCSCF STATE 1.6 Energy               -3.664667631663
 Nuclear energy                         0.00000000
 Kinetic energy                         1.31696926
 One electron energy                   -5.65475049
 Two electron energy                    1.99008286
 Virial ratio                           3.78265237

 !MCSCF STATE 1.6 Dipole moment         0.00000000     0.00000000     0.00000000
 Dipole moment /Debye                   0.00000000     0.00000000     0.00000000



 Results for state 1.7
 =====================

 !MCSCF STATE 1.7 Energy               -3.664667631663
 Nuclear energy                         0.00000000
 Kinetic energy                         1.31696926
 One electron energy                   -5.65475049
 Two electron energy                    1.99008286
 Virial ratio                           3.78265237

 !MCSCF STATE 1.7 Dipole moment         0.00000000     0.00000000     0.00000000
 Dipole moment /Debye                   0.00000000     0.00000000     0.00000000

 State-averaged charge density matrix saved on record  5202.2 (density set 1)


 NATURAL ORBITALS (state averaged)
 =================================

   Orb     Occ        Energy       Coefficients

                                   1 1s      1 1s      1 1s      1 1s      1 1s      1 1s      1 1s      1 1s      1 1s      1 1s   
                                   1 1s      1 1s      1 1s      1 1s      1 1s      1 1s      1 3d0     1 3d2+    1 3d0     1 3d2+ 
                                   1 3d0     1 3d2+ 

   1.1  2.00000    -0.540501     0.000000 -0.000000  0.000000 -0.000001  0.000004 -0.000016  0.000054 -0.000162  0.000444 -0.002105
                                 0.041986 -0.296390  0.692276  0.083282  0.384420  0.006420  0.000000  0.000000  0.000000  0.000000
                                 0.000000  0.000000

                                   1 2px     1 2px     1 2px     1 2px     1 2px     1 2px     1 2px     1 2px     1 2px     1 2px  
                                   1 4f1+    1 4f3+    1 4f1+    1 4f3+ 

   1.2  0.66667    -0.067068     0.000014 -0.000116  0.000621 -0.002563  0.010629 -0.046125  0.561879  0.044691  0.503523  0.027959
                                 0.000000  0.000000  0.000000  0.000000

                                   1 2py     1 2py     1 2py     1 2py     1 2py     1 2py     1 2py     1 2py     1 2py     1 2py  
                                   1 4f1-    1 4f3-    1 4f1-    1 4f3- 

   1.3  0.66667    -0.067068     0.000014 -0.000116  0.000621 -0.002563  0.010629 -0.046125  0.561879  0.044691  0.503523  0.027959
                                 0.000000  0.000000  0.000000  0.000000

                                   1 2pz     1 2pz     1 2pz     1 2pz     1 2pz     1 2pz     1 2pz     1 2pz     1 2pz     1 2pz  
                                   1 4f0     1 4f2+    1 4f0     1 4f2+ 

   1.5  0.66667    -0.067068     0.000014 -0.000116  0.000621 -0.002563  0.010629 -0.046125  0.561879  0.044691  0.503523  0.027959
                                 0.000000  0.000000  0.000000  0.000000
 

 EXTRA SYMMETRY OF MOS IN SYMMETRY 1:   1 1 2 3 1 2 3 2 3 1   1 1 1 1 1 1 1 1 1 1   1 1
 EXTRA SYMMETRY OF MOS IN SYMMETRY 2:   1 1 1 3 2 2 3 1 1 1   1 1 1 1
 EXTRA SYMMETRY OF MOS IN SYMMETRY 5:   1 1 1 3 2 3 2 1 1 1   1 1 1 1

 Natural orbital dump (state averaged) at molpro section  5202.2    (Orbital set 2)


 CI vector for state symmetry 1
 ==============================

 a a 0           1.0000000

 TOTAL ENERGIES                        -3.66466763

 CI vector for state symmetry 2
 ==============================

 a 0 a           1.0000000

 TOTAL ENERGIES                        -3.66466763

 CI vector for state symmetry 3
 ==============================

 0 a a           1.0000000

 TOTAL ENERGIES                        -3.66466763



 **********************************************************************************************************************************
 DATASETS  * FILE   NREC   LENGTH (MB)   RECORD NAMES
              1      21       10.01       500      610      700      900      950      970     1000      129      960     1100   
                                          VAR    BASINP    GEOM    SYMINP    ZMAT    AOBASIS   BASIS     P2S    ABASIS      S 
                                         1400     1410     1420     1200     1210     1080     1600     1650     1300     1700   
                                           T        V       ECP      H0       H01     AOSYM     SMH    MOLCAS    ERIS     OPER   
                                         1380   
                                         JKOP   

              2       6        6.60       200      700     1000      520     4202     5202   
                                        OPTIONS   GEOM     BASIS   MCVARS     RHF     MCSCF   

 PROGRAMS   *        TOTAL     MULTI       RHF       INT
 CPU TIMES  *         0.98      0.11      0.11      0.59
 REAL TIME  *         2.40 SEC
 DISK USED  *        26.18 MB      
 **********************************************************************************************************************************

1PROGRAM * RHF-SCF (OPEN SHELL)       Authors: W. Meyer, H.-J. Werner


 NUMBER OF ELECTRONS:       3+    1-    SPACE SYMMETRY=4    SPIN SYMMETRY: Triplet 
 CONVERGENCE THRESHOLDS:    1.00E-05 (Density)    1.00E-07 (Energy)
 MAX. NUMBER OF ITERATIONS:        0
 INTERPOLATION TYPE:            DIIS
 INTERPOLATION STEPS:              2 (START)      1 (STEP)
 LEVEL SHIFTS:                 -0.30 (CLOSED)  0.00 (OPEN) 


 Singly occupied orbitals:      1.2       1.3
 Molecular orbitals read from record     5202.2  Type=MCSCF/NATURAL  

 Molecular orbital dump at record        2101.2

 ITERATION    DDIFF          GRAD             ENERGY        2-EL.EN.            DIPOLE MOMENTS         DIIS   ORB.
    1      0.000D+00      0.000D+00        -3.66466763      3.980166    0.00000    0.00000    0.00000    0    start

 Final alpha occupancy:   1   1   1   0   0   0   0   0
 Final beta  occupancy:   1   0   0   0   0   0   0   0

 !RHF STATE 1.4 Energy                 -3.664667631663
 Nuclear energy                         0.00000000
 One-electron energy                   -5.65475049
 Two-electron energy                    1.99008286
 Virial quotient                       -2.78265237
 !RHF STATE 1.4 Dipole moment           0.00000000     0.00000000     0.00000000
 Dipole moment /Debye                   0.00000000     0.00000000     0.00000000

 Orbital energies:

         1.1          2.1          3.1
     -0.540501     0.068745     0.160196

         1.2          2.2          3.2
     -0.067068     0.074231     0.457387

         1.3          2.3          3.3
     -0.067068     0.074231     0.457387

         1.4          2.4
      0.160196     0.470946

         1.5          2.5
     -0.067068     0.074231

         1.6          2.6
      0.160196     0.470946

         1.7          2.7
      0.160196     0.470946

         1.8          2.8
      0.498225     1.443740

 HOMO      1.2    -0.067068 =      -1.8250eV
 LUMO      1.5    -0.067068 =      -1.8250eV
 LUMO-HOMO        -0.000000 =      -0.0000eV


 **********************************************************************************************************************************
 DATASETS  * FILE   NREC   LENGTH (MB)   RECORD NAMES
              1      21       10.01       500      610      700      900      950      970     1000      129      960     1100   
                                          VAR    BASINP    GEOM    SYMINP    ZMAT    AOBASIS   BASIS     P2S    ABASIS      S 
                                         1400     1410     1420     1200     1210     1080     1600     1650     1300     1700   
                                           T        V       ECP      H0       H01     AOSYM     SMH    MOLCAS    ERIS     OPER   
                                         1380   
                                         JKOP   

              2       7        9.15       200      700     1000      520     4202     5202     2101   
                                        OPTIONS   GEOM     BASIS   MCVARS     RHF     MCSCF     RHF  

 PROGRAMS   *        TOTAL       RHF     MULTI       RHF       INT
 CPU TIMES  *         1.02      0.03      0.11      0.11      0.59
 REAL TIME  *         2.50 SEC
 DISK USED  *        26.18 MB      
 **********************************************************************************************************************************
 SETTING SCF(1)         =        -3.66466763  AU                              
 SETTING _CC_NORM_MAX   =         2.00000000                                  


1PROGRAM * CCSD (Unrestricted open-shell coupled cluster)     Authors: C. Hampel, H.-J. Werner, 1991, M. Deegan, P.J. Knowles, 1992


 Convergence thresholds:  THRVAR = 1.00D-08  THRDEN = 1.00D-06

 CCSD(T)     terms to be evaluated (factor= 1.000)


 Number of closed-shell orbitals:   1 (   1   0   0   0   0   0   0   0 )
 Number of active  orbitals:        2 (   0   1   1   0   0   0   0   0 )
 Number of external orbitals:      72 (  21  13  13   3  14   3   3   2 )

 Memory could be reduced to 0.83 Mwords without degradation in triples

 Number of N-1 electron functions:               4
 Number of N-2 electron functions:               6
 Number of singly external CSFs:                70
 Number of doubly external CSFs:              3889
 Total number of CSFs:                        3959

 Molecular orbitals read from record     2101.2  Type=RHF/CANONICAL (state 1.4)

 Integral transformation finished. Total CPU:   0.01 sec, npass=  1  Memory used:   0.12 MW

 Starting RMP2 calculation

 ITER.      SQ.NORM     CORR.ENERGY   TOTAL ENERGY   ENERGY CHANGE        DEN1      VAR(S)    VAR(P)  DIIS     TIME
   1      1.04129324    -0.06339750    -3.72806514    -0.06339750    -0.00072475  0.39D-04  0.46D-03  1  1     0.02
   2      1.04267692    -0.06423847    -3.72890611    -0.00084097    -0.00000302  0.40D-07  0.19D-05  2  2     0.03
   3      1.04272242    -0.06425434    -3.72892197    -0.00001587    -0.00000001  0.41D-09  0.63D-08  3  3     0.03
   4      1.04272321    -0.06425464    -3.72892227    -0.00000030    -0.00000000  0.11D-11  0.22D-10  4  4     0.03

 Norm of t1 vector:      0.05174490      S-energy:    -0.00262169      T1 diagnostic:  0.00189101
 Norm of t2 vector:      0.20011415      P-energy:    -0.06163295
                                         Alpha-Beta:  -0.05113227
                                         Alpha-Alpha: -0.01050068
                                         Beta-Beta:    0.00000000

 Spin contamination <S**2-Sz**2-Sz>     0.00781274
  Reference energy                     -3.664667631663
  RHF-RMP2 correlation energy          -0.064254641588
 !RHF-RMP2 energy                      -3.728922273252

 Starting UCCSD calculation

 ITER.      SQ.NORM     CORR.ENERGY   TOTAL ENERGY   ENERGY CHANGE        DEN1      VAR(S)    VAR(P)  DIIS     TIME
   1      1.05760491    -0.07345199    -3.73811962    -0.07345199    -0.00558773  0.34D-03  0.34D-02  1  1     0.05
   2      1.07350998    -0.08069834    -3.74536597    -0.00724635    -0.00029781  0.29D-04  0.16D-03  2  2     0.07
   3      1.07699389    -0.08157001    -3.74623764    -0.00087167    -0.00002426  0.17D-05  0.15D-04  3  3     0.08
   4      1.07825181    -0.08187005    -3.74653769    -0.00030005    -0.00000150  0.15D-06  0.85D-06  4  4     0.09
   5      1.07827391    -0.08184491    -3.74651255     0.00002514    -0.00000009  0.76D-08  0.58D-07  5  5     0.11
   6      1.07832704    -0.08186284    -3.74653047    -0.00001793    -0.00000001  0.41D-09  0.39D-08  6  6     0.13
   7      1.07831604    -0.08185798    -3.74652561     0.00000487    -0.00000000  0.83D-10  0.43D-09  6  1     0.15
   8      1.07831675    -0.08185806    -3.74652569    -0.00000009    -0.00000000  0.57D-11  0.23D-10  6  4     0.16

 Norm of t1 vector:      0.06822076      S-energy:    -0.00306626      T1 diagnostic:  0.01000491
                                                                       D1 diagnostic:  0.01591783
 Norm of t2 vector:      0.27140869      P-energy:    -0.07879180
                                         Alpha-Beta:  -0.06698347
                                         Alpha-Alpha: -0.01180833
                                         Beta-Beta:    0.00000000

 Doubles amplitudes (print threshold =  0.500E-01):

         I         J         SYM. A    SYM. B    A         B      T(IJ, AB) [Alpha-Beta]

         1         1         5         5         1         1     -0.11460691
         2         1         1         2         6         1     -0.05387452
         2         1         4         3         2         1     -0.05387452
         2         1         6         5         2         1     -0.05590605
         3         1         1         3         6         1      0.05387452
         3         1         4         2         2         1     -0.05387452
         3         1         7         5         2         1     -0.05590605

 Spin contamination <S**2-Sz**2-Sz>     0.00398791

 Memory could be reduced to 0.90 Mwords without degradation in triples
 

 RESULTS
 =======

  Reference energy                     -3.664667631663
  UCCSD singles energy                 -0.003066263269
  UCCSD pair energy                    -0.078791799507
  UCCSD correlation energy             -0.081858062776
  Triples (T) contribution             -0.002946117414
  Total correlation energy             -0.084804180190
 
  RHF-UCCSD energy                     -3.746525694440
  RHF-UCCSD[T] energy                  -3.749406565391
  RHF-UCCSD-T energy                   -3.749482345476
 !RHF-UCCSD(T) energy                  -3.749471811854

 Program statistics:

 Available memory in ccsd:               511999798
 Min. memory needed in ccsd:                 42719
 Max. memory used in ccsd:                   45506
 Max. memory used in cckext:                 68690 ( 8 integral passes)
 Max. memory used in cckint:                121230 ( 1 integral passes)



 **********************************************************************************************************************************
 DATASETS  * FILE   NREC   LENGTH (MB)   RECORD NAMES
              1      21       10.01       500      610      700      900      950      970     1000      129      960     1100   
                                          VAR    BASINP    GEOM    SYMINP    ZMAT    AOBASIS   BASIS     P2S    ABASIS      S 
                                         1400     1410     1420     1200     1210     1080     1600     1650     1300     1700   
                                           T        V       ECP      H0       H01     AOSYM     SMH    MOLCAS    ERIS     OPER   
                                         1380   
                                         JKOP   

              2       7        9.15       200      700     1000      520     4202     5202     2101   
                                        OPTIONS   GEOM     BASIS   MCVARS     RHF     MCSCF     RHF  

 PROGRAMS   *        TOTAL  UCCSD(T)       RHF     MULTI       RHF       INT
 CPU TIMES  *         1.24      0.22      0.03      0.11      0.11      0.59
 REAL TIME  *         2.94 SEC
 DISK USED  *        26.18 MB      
 **********************************************************************************************************************************
 SETTING CCSD(1)        =        -3.74947181  AU                              

 DO I                   =         2.00000000   

 Running procedure=IP1

1PROGRAM * RHF-SCF (OPEN SHELL)       Authors: W. Meyer, H.-J. Werner


 NUMBER OF ELECTRONS:       2+    1-    SPACE SYMMETRY=2    SPIN SYMMETRY: Doublet 
 CONVERGENCE THRESHOLDS:    1.00E-05 (Density)    1.00E-07 (Energy)
 MAX. NUMBER OF ITERATIONS:       60
 INTERPOLATION TYPE:            DIIS
 INTERPOLATION STEPS:              2 (START)      1 (STEP)
 LEVEL SHIFTS:                 -0.30 (CLOSED)  0.00 (OPEN) 


 Singly occupied orbitals:      1.2
 Orbital guess generated from atomic densities. Full valence occupancy:    1   1   1   0   1   0   0   0


 Molecular orbital dump at record        4202.2

 ITERATION    DDIFF          GRAD             ENERGY        2-EL.EN.            DIPOLE MOMENTS         DIIS   ORB.
    1      0.000D+00      0.000D+00        -3.34519291      2.022636    0.00000    0.00000    0.00000    0    start
    2      0.000D+00      0.147D-01        -3.37948311      2.185088    0.00000    0.00000    0.00000    1    diag,B
    3      0.131D-01      0.430D-02        -3.38302048      2.242508    0.00000    0.00000    0.00000    2    diag,B
    4      0.723D-02      0.755D-03        -3.38308383      2.249230    0.00000    0.00000    0.00000    3    diag,B
    5      0.192D-02      0.927D-04        -3.38308509      2.248424    0.00000    0.00000    0.00000    4    diag,B
    6      0.240D-03      0.226D-04        -3.38308514      2.248590    0.00000    0.00000    0.00000    5    diag,B
    7      0.376D-04      0.272D-05        -3.38308514      2.248586    0.00000    0.00000    0.00000    6    fixocc
    8      0.312D-05      0.660D-06        -3.38308514      2.248587    0.00000    0.00000    0.00000    0    orth

 Final alpha occupancy:   1   1   0   0   0   0   0   0
 Final beta  occupancy:   1   0   0   0   0   0   0   0

 !RHF STATE 1.2 Energy                 -3.383085142897
 Nuclear energy                         0.00000000
 One-electron energy                   -4.50737888
 Two-electron energy                    1.12429374
 Virial quotient                       -3.14358152
 !RHF STATE 1.2 Dipole moment           0.00000000     0.00000000     0.00000000
 Dipole moment /Debye                   0.00000000     0.00000000     0.00000000

 Orbital energies:

         1.1          2.1          3.1
     -0.837593    -0.101609    -0.035344

         1.2          2.2          3.2
     -0.583607    -0.067762     0.200189

         1.3          2.3
     -0.268423    -0.065574

         1.4          2.4
     -0.034530     0.199275

         1.5          2.5
     -0.268423    -0.065574

         1.6          2.6
     -0.034530     0.199275

         1.7          2.7
     -0.031579     0.209750

         1.8          2.8
      0.269304     1.136811

 HOMO      1.2    -0.583607 =     -15.8807eV
 LUMO      1.3    -0.268423 =      -7.3042eV
 LUMO-HOMO         0.315184 =       8.5766eV


 **********************************************************************************************************************************
 DATASETS  * FILE   NREC   LENGTH (MB)   RECORD NAMES
              1      21       10.01       500      610      700      900      950      970     1000      129      960     1100   
                                          VAR    BASINP    GEOM    SYMINP    ZMAT    AOBASIS   BASIS     P2S    ABASIS      S 
                                         1400     1410     1420     1200     1210     1080     1600     1650     1300     1700   
                                           T        V       ECP      H0       H01     AOSYM     SMH    MOLCAS    ERIS     OPER   
                                         1380   
                                         JKOP   

              2       7        9.15       200      700     1000      520     4202     5202     2101   
                                        OPTIONS   GEOM     BASIS   MCVARS     RHF     MCSCF     RHF  

 PROGRAMS   *        TOTAL       RHF  UCCSD(T)       RHF     MULTI       RHF       INT
 CPU TIMES  *         1.33      0.08      0.22      0.03      0.11      0.11      0.59
 REAL TIME  *         3.14 SEC
 DISK USED  *        26.18 MB      
 **********************************************************************************************************************************

1PROGRAM * MULTI (Direct Multiconfiguration SCF)       Authors: P.J. Knowles, H.-J. Werner (1984)     S.T. Elbert (1988)


 Number of closed-shell orbitals:   1 (   1   0   0   0   0   0   0   0 )
 Number of active  orbitals:        3 (   0   1   1   0   1   0   0   0 )
 Number of external orbitals:      71 (  21  13  13   3  13   3   3   2 )

 State symmetry 1

 Number of electrons:     1    Spin symmetry=Doublet   Space symmetry=2
 Number of states:        1
 Number of CSFs:          1   (1 determinants, 3 intermediate states)

 State symmetry 2

 Number of electrons:     1    Spin symmetry=Doublet   Space symmetry=3
 Number of states:        1
 Number of CSFs:          1   (1 determinants, 3 intermediate states)

 State symmetry 3

 Number of electrons:     1    Spin symmetry=Doublet   Space symmetry=5
 Number of states:        1
 Number of CSFs:          1   (1 determinants, 3 intermediate states)

 Molecular orbitals read from record     4202.2  Type=RHF/CANONICAL (state 1.2)
 *** IN SYMMETRY 1 ORBITAL  1 SYMMETRY CONTAMINATION OF 0.686D-02 HAS BEEN REMOVED

 EXTRA SYMMETRY OF MOS IN SYMMETRY 1:   1 1 3 2 1 3 2 2 3 1   1 1 1 1 1 1 1 1 1 1   1 1
 *** IN SYMMETRY 2 ORBITAL  1 SYMMETRY CONTAMINATION OF 0.296D-03 HAS BEEN REMOVED
 EXTRA SYMMETRY OF MOS IN SYMMETRY 2:   1 1 1 2 3 2 3 1 1 1   1 1 1 1
 *** IN SYMMETRY 3 ORBITAL  1 SYMMETRY CONTAMINATION OF 0.256D-02 HAS BEEN REMOVED
 EXTRA SYMMETRY OF MOS IN SYMMETRY 3:   1 1 1 2 3 2 3 1 1 1   1 1 1 1
 *** IN SYMMETRY 5 ORBITAL  1 SYMMETRY CONTAMINATION OF 0.294D-02 HAS BEEN REMOVED
 EXTRA SYMMETRY OF MOS IN SYMMETRY 5:   1 1 1 2 3 2 3 1 1 1   1 1 1 1

 Wavefunction dump at record             5202.2

 Convergence thresholds  0.10E-01 (gradient)  0.10E-05 (energy)  0.10E-02 (step length)

 Weight factors for state symmetry  1:    0.33333
 Weight factors for state symmetry  2:    0.33333
 Weight factors for state symmetry  3:    0.33333

 Number of orbital rotations:       60   (     0 Core/Active     21 Core/Virtual   0 Active/Active     39 Active/Virtual)
 Total number of variables:         63


 ITER. MIC  NCI  NEG     ENERGY(VAR)     ENERGY(PROJ)   ENERGY CHANGE     GRAD(0)  GRAD(ORB)   GRAD(CI)     STEP       TIME

   1   18   12    0      -3.37541484      -3.38302213   -0.00760729    0.03478936 0.00000000 0.00000000  0.24D+00      0.02
   2   14   12    0      -3.38302129      -3.38302177   -0.00000049    0.00090630 0.00000000 0.00000000  0.60D-03      0.04

 ** WVFN ****  CONVERGENCE REACHED, FINAL GRADIENT:  0.90D-07



 Results for state 1.2
 =====================

 !MCSCF STATE 1.2 Energy               -3.383021774894
 Nuclear energy                         0.00000000
 Kinetic energy                         1.07618227
 One electron energy                   -4.50745645
 Two electron energy                    1.12443467
 Virial ratio                           4.14353979

 !MCSCF STATE 1.2 Dipole moment         0.00000000     0.00000000     0.00000000
 Dipole moment /Debye                   0.00000000     0.00000000     0.00000000



 Results for state 1.3
 =====================

 !MCSCF STATE 1.3 Energy               -3.383021774894
 Nuclear energy                         0.00000000
 Kinetic energy                         1.07618227
 One electron energy                   -4.50745645
 Two electron energy                    1.12443467
 Virial ratio                           4.14353978

 !MCSCF STATE 1.3 Dipole moment         0.00000000     0.00000000     0.00000000
 Dipole moment /Debye                   0.00000000     0.00000000     0.00000000



 Results for state 1.5
 =====================

 !MCSCF STATE 1.5 Energy               -3.383021774894
 Nuclear energy                         0.00000000
 Kinetic energy                         1.07618227
 One electron energy                   -4.50745645
 Two electron energy                    1.12443467
 Virial ratio                           4.14353978

 !MCSCF STATE 1.5 Dipole moment         0.00000000     0.00000000     0.00000000
 Dipole moment /Debye                   0.00000000     0.00000000     0.00000000

 State-averaged charge density matrix saved on record  5202.2 (density set 1)


 NATURAL ORBITALS (state averaged)
 =================================

   Orb     Occ        Energy       Coefficients

                                   1 1s      1 1s      1 1s      1 1s      1 1s      1 1s      1 1s      1 1s      1 1s      1 1s   
                                   1 1s      1 1s      1 1s      1 1s      1 1s      1 1s      1 3d0     1 3d2+    1 3d0     1 3d2+ 
                                   1 3d0     1 3d2+ 

   1.1  2.00000    -0.837549     0.000000 -0.000000  0.000000 -0.000001  0.000005 -0.000017  0.000059 -0.000175  0.000476 -0.002217
                                 0.044823 -0.320539  0.796287  0.104421  0.285135 -0.015485  0.000000  0.000000  0.000000  0.000000
                                 0.000000  0.000000

                                   1 2px     1 2px     1 2px     1 2px     1 2px     1 2px     1 2px     1 2px     1 2px     1 2px  
                                   1 4f1+    1 4f3+    1 4f1+    1 4f3+ 

   1.2  0.33333    -0.294035     0.000016 -0.000134  0.000720 -0.002974  0.012360 -0.054222  0.684287  0.057660  0.391013 -0.021890
                                 0.000000  0.000000  0.000000  0.000000

                                   1 2py     1 2py     1 2py     1 2py     1 2py     1 2py     1 2py     1 2py     1 2py     1 2py  
                                   1 4f1-    1 4f3-    1 4f1-    1 4f3- 

   1.3  0.33333    -0.294035     0.000016 -0.000134  0.000720 -0.002974  0.012360 -0.054222  0.684287  0.057660  0.391013 -0.021890
                                 0.000000  0.000000  0.000000  0.000000

                                   1 2pz     1 2pz     1 2pz     1 2pz     1 2pz     1 2pz     1 2pz     1 2pz     1 2pz     1 2pz  
                                   1 4f0     1 4f2+    1 4f0     1 4f2+ 

   1.5  0.33333    -0.294035     0.000016 -0.000134  0.000720 -0.002974  0.012360 -0.054222  0.684287  0.057660  0.391013 -0.021890
                                 0.000000  0.000000  0.000000  0.000000

 Total charge:   1.000000000000
 

 EXTRA SYMMETRY OF MOS IN SYMMETRY 1:   1 1 2 3 1 2 3 2 3 1   1 1 1 1 1 1 1 1 1 1   1 1
 EXTRA SYMMETRY OF MOS IN SYMMETRY 2:   1 1 1 2 3 3 2 1 1 1   1 1 1 1
 EXTRA SYMMETRY OF MOS IN SYMMETRY 3:   1 1 1 2 3 3 2 1 1 1   1 1 1 1
 EXTRA SYMMETRY OF MOS IN SYMMETRY 5:   1 1 1 2 3 3 2 1 1 1   1 1 1 1

 Natural orbital dump (state averaged) at molpro section  5202.2    (Orbital set 2)


 CI vector for state symmetry 1
 ==============================

 a 0 0           1.0000000

 TOTAL ENERGIES                        -3.38302177

 CI vector for state symmetry 2
 ==============================

 0 a 0           1.0000000

 TOTAL ENERGIES                        -3.38302177

 CI vector for state symmetry 3
 ==============================

 0 0 a           1.0000000

 TOTAL ENERGIES                        -3.38302177



 **********************************************************************************************************************************
 DATASETS  * FILE   NREC   LENGTH (MB)   RECORD NAMES
              1      21       10.01       500      610      700      900      950      970     1000      129      960     1100   
                                          VAR    BASINP    GEOM    SYMINP    ZMAT    AOBASIS   BASIS     P2S    ABASIS      S 
                                         1400     1410     1420     1200     1210     1080     1600     1650     1300     1700   
                                           T        V       ECP      H0       H01     AOSYM     SMH    MOLCAS    ERIS     OPER   
                                         1380   
                                         JKOP   

              2       7        9.15       200      700     1000      520     4202     5202     2101   
                                        OPTIONS   GEOM     BASIS   MCVARS     RHF     MCSCF     RHF  

 PROGRAMS   *        TOTAL     MULTI       RHF  UCCSD(T)       RHF     MULTI       RHF       INT
 CPU TIMES  *         1.40      0.05      0.08      0.22      0.03      0.11      0.11      0.59
 REAL TIME  *         3.55 SEC
 DISK USED  *        28.48 MB      
 **********************************************************************************************************************************

1PROGRAM * RHF-SCF (OPEN SHELL)       Authors: W. Meyer, H.-J. Werner


 NUMBER OF ELECTRONS:       2+    1-    SPACE SYMMETRY=2    SPIN SYMMETRY: Doublet 
 CONVERGENCE THRESHOLDS:    1.00E-05 (Density)    1.00E-07 (Energy)
 MAX. NUMBER OF ITERATIONS:        0
 INTERPOLATION TYPE:            DIIS
 INTERPOLATION STEPS:              2 (START)      1 (STEP)
 LEVEL SHIFTS:                 -0.30 (CLOSED)  0.00 (OPEN) 


 Singly occupied orbitals:      1.2
 Molecular orbitals read from record     5202.2  Type=MCSCF/NATURAL  

 Molecular orbital dump at record        2103.2

 ITERATION    DDIFF          GRAD             ENERGY        2-EL.EN.            DIPOLE MOMENTS         DIIS   ORB.
    1      0.000D+00      0.000D+00        -3.38302177      2.248869    0.00000    0.00000    0.00000    0    start

 Final alpha occupancy:   1   1   0   0   0   0   0   0
 Final beta  occupancy:   1   0   0   0   0   0   0   0

 !RHF STATE 1.2 Energy                 -3.383021774894
 Nuclear energy                         0.00000000
 One-electron energy                   -4.50745645
 Two-electron energy                    1.12443467
 Virial quotient                       -3.14353979
 !RHF STATE 1.2 Dipole moment           0.00000000     0.00000000     0.00000000
 Dipole moment /Debye                   0.00000000     0.00000000     0.00000000

 Orbital energies:

         1.1          2.1          3.1
     -0.837549    -0.098940    -0.026909

         1.2          2.2          3.2
     -0.294035    -0.067074     0.213673

         1.3          2.3
     -0.294035    -0.067074

         1.4          2.4
     -0.026909     0.217694

         1.5          2.5
     -0.294035    -0.067074

         1.6          2.6
     -0.026909     0.217694

         1.7          2.7
     -0.026909     0.217694

         1.8          2.8
      0.273268     1.147479

 HOMO      1.2    -0.294035 =      -8.0011eV
 LUMO      1.3    -0.294035 =      -8.0011eV
 LUMO-HOMO         0.000000 =       0.0000eV


 **********************************************************************************************************************************
 DATASETS  * FILE   NREC   LENGTH (MB)   RECORD NAMES
              1      21       10.01       500      610      700      900      950      970     1000      129      960     1100   
                                          VAR    BASINP    GEOM    SYMINP    ZMAT    AOBASIS   BASIS     P2S    ABASIS      S 
                                         1400     1410     1420     1200     1210     1080     1600     1650     1300     1700   
                                           T        V       ECP      H0       H01     AOSYM     SMH    MOLCAS    ERIS     OPER   
                                         1380   
                                         JKOP   

              2       8       11.68       200      700     1000      520     4202     5202     2101     2103   
                                        OPTIONS   GEOM     BASIS   MCVARS     RHF     MCSCF     RHF      RHF  

 PROGRAMS   *        TOTAL       RHF     MULTI       RHF  UCCSD(T)       RHF     MULTI       RHF       INT
 CPU TIMES  *         1.43      0.03      0.05      0.08      0.22      0.03      0.11      0.11      0.59
 REAL TIME  *         3.64 SEC
 DISK USED  *        28.48 MB      
 **********************************************************************************************************************************
 SETTING SCF(2)         =        -3.38302177  AU                              
 SETTING _CC_NORM_MAX   =         2.00000000                                  


1PROGRAM * CCSD (Unrestricted open-shell coupled cluster)     Authors: C. Hampel, H.-J. Werner, 1991, M. Deegan, P.J. Knowles, 1992


 Convergence thresholds:  THRVAR = 1.00D-08  THRDEN = 1.00D-06

 CCSD(T)     terms to be evaluated (factor= 1.000)


 Number of closed-shell orbitals:   1 (   1   0   0   0   0   0   0   0 )
 Number of active  orbitals:        1 (   0   1   0   0   0   0   0   0 )
 Number of external orbitals:      73 (  21  13  14   3  14   3   3   2 )

 Memory could be reduced to 0.79 Mwords without degradation in triples

 Number of N-1 electron functions:               3
 Number of N-2 electron functions:               3
 Number of singly external CSFs:                56
 Number of doubly external CSFs:              2345
 Total number of CSFs:                        2401

 Molecular orbitals read from record     2103.2  Type=RHF/CANONICAL (state 1.2)

 Integral transformation finished. Total CPU:   0.01 sec, npass=  1  Memory used:   0.11 MW

 Starting RMP2 calculation

 ITER.      SQ.NORM     CORR.ENERGY   TOTAL ENERGY   ENERGY CHANGE        DEN1      VAR(S)    VAR(P)  DIIS     TIME
   1      1.03148342    -0.04931975    -3.43234152    -0.04931975    -0.00048384  0.39D-04  0.28D-03  1  1     0.02
   2      1.03237462    -0.04987646    -3.43289824    -0.00055671    -0.00000161  0.42D-07  0.84D-06  2  2     0.02
   3      1.03239893    -0.04988562    -3.43290740    -0.00000916    -0.00000000  0.22D-09  0.16D-08  3  3     0.02
   4      1.03239903    -0.04988567    -3.43290744    -0.00000004    -0.00000000  0.12D-11  0.40D-11  4  4     0.02

 Norm of t1 vector:      0.05364243      S-energy:    -0.00298696      T1 diagnostic:  0.00280007
 Norm of t2 vector:      0.17181828      P-energy:    -0.04689871
                                         Alpha-Beta:  -0.04369092
                                         Alpha-Alpha: -0.00320778
                                         Beta-Beta:    0.00000000

 Spin contamination <S**2-Sz**2-Sz>     0.01099493
  Reference energy                     -3.383021774894
  RHF-RMP2 correlation energy          -0.049885665650
 !RHF-RMP2 energy                      -3.432907440544

 Starting UCCSD calculation

 ITER.      SQ.NORM     CORR.ENERGY   TOTAL ENERGY   ENERGY CHANGE        DEN1      VAR(S)    VAR(P)  DIIS     TIME
   1      1.04622907    -0.05822204    -3.44124382    -0.05822204    -0.00501608  0.28D-03  0.31D-02  1  1     0.04
   2      1.06239604    -0.06530130    -3.44832307    -0.00707925    -0.00030666  0.24D-04  0.15D-03  2  2     0.05
   3      1.06613290    -0.06628500    -3.44930677    -0.00098370    -0.00001889  0.16D-05  0.10D-04  3  3     0.06
   4      1.06716223    -0.06655605    -3.44957782    -0.00027105    -0.00000081  0.45D-07  0.39D-06  4  4     0.08
   5      1.06712617    -0.06652840    -3.44955017     0.00002765    -0.00000003  0.34D-08  0.15D-07  5  5     0.09
   6      1.06715972    -0.06654118    -3.44956295    -0.00001278    -0.00000000  0.20D-09  0.51D-09  6  6     0.11
   7      1.06715283    -0.06653852    -3.44956029     0.00000266    -0.00000000  0.12D-10  0.38D-10  6  1     0.12
   8      1.06715285    -0.06653852    -3.44956029    -0.00000000    -0.00000000  0.61D-12  0.39D-11  6  2     0.13

 Norm of t1 vector:      0.06599169      S-energy:    -0.00340128      T1 diagnostic:  0.00941332
                                                                       D1 diagnostic:  0.01354321
 Norm of t2 vector:      0.25059518      P-energy:    -0.06313724
                                         Alpha-Beta:  -0.05966911
                                         Alpha-Alpha: -0.00346812
                                         Beta-Beta:    0.00000000

 Doubles amplitudes (print threshold =  0.500E-01):

         I         J         SYM. A    SYM. B    A         B      T(IJ, AB) [Alpha-Beta]

         1         1         3         3         1         1     -0.11904752
         1         1         5         5         1         1     -0.11904751
         2         1         1         2         6         1     -0.05707838
         2         1         4         3         2         1     -0.05665950
         2         1         6         5         2         1     -0.05665953

 Spin contamination <S**2-Sz**2-Sz>     0.00122509

 Memory could be reduced to 0.82 Mwords without degradation in triples
 

 RESULTS
 =======

  Reference energy                     -3.383021774894
  UCCSD singles energy                 -0.003401281237
  UCCSD pair energy                    -0.063137236640
  UCCSD correlation energy             -0.066538517877
  Triples (T) contribution             -0.001415882444
  Total correlation energy             -0.067954400321
 
  RHF-UCCSD energy                     -3.449560292771
  RHF-UCCSD[T] energy                  -3.450890813915
  RHF-UCCSD-T energy                   -3.450989936570
 !RHF-UCCSD(T) energy                  -3.450976175215

 Program statistics:

 Available memory in ccsd:               511999848
 Min. memory needed in ccsd:                 36994
 Max. memory used in ccsd:                   38046
 Max. memory used in cckext:                 63714 ( 8 integral passes)
 Max. memory used in cckint:                111027 ( 1 integral passes)



 **********************************************************************************************************************************
 DATASETS  * FILE   NREC   LENGTH (MB)   RECORD NAMES
              1      21       10.01       500      610      700      900      950      970     1000      129      960     1100   
                                          VAR    BASINP    GEOM    SYMINP    ZMAT    AOBASIS   BASIS     P2S    ABASIS      S 
                                         1400     1410     1420     1200     1210     1080     1600     1650     1300     1700   
                                           T        V       ECP      H0       H01     AOSYM     SMH    MOLCAS    ERIS     OPER   
                                         1380   
                                         JKOP   

              2       8       11.68       200      700     1000      520     4202     5202     2101     2103   
                                        OPTIONS   GEOM     BASIS   MCVARS     RHF     MCSCF     RHF      RHF  

 PROGRAMS   *        TOTAL  UCCSD(T)       RHF     MULTI       RHF  UCCSD(T)       RHF     MULTI       RHF       INT
 CPU TIMES  *         1.63      0.20      0.03      0.05      0.08      0.22      0.03      0.11      0.11      0.59
 REAL TIME  *         4.02 SEC
 DISK USED  *        28.48 MB      
 **********************************************************************************************************************************
 SETTING CCSD(2)        =        -3.45097618  AU                              

 DO I                   =         3.00000000   

 Running procedure=IP2

1PROGRAM * RHF-SCF (CLOSED SHELL)       Authors: W. Meyer, H.-J. Werner


 NUMBER OF ELECTRONS:       1+    1-    SPACE SYMMETRY=1    SPIN SYMMETRY: Singlet 
 CONVERGENCE THRESHOLDS:    1.00E-05 (Density)    1.00E-07 (Energy)
 MAX. NUMBER OF ITERATIONS:       60
 INTERPOLATION TYPE:            DIIS
 INTERPOLATION STEPS:              2 (START)      1 (STEP)
 LEVEL SHIFTS:                  0.00 (CLOSED)  0.00 (OPEN) 



 Orbital guess generated from atomic densities. Full valence occupancy:    1   1   1   0   1   0   0   0


 Molecular orbital dump at record        2104.2

 ITERATION    DDIFF          GRAD             ENERGY        2-EL.EN.            DIPOLE MOMENTS         DIIS   ORB.
    1      0.000D+00      0.000D+00        -2.77443064      0.814412    0.00000    0.00000    0.00000    0    start
    2      0.000D+00      0.254D-01        -2.80616829      0.885838    0.00000    0.00000    0.00000    1    diag
    3      0.231D-01      0.503D-02        -2.80753287      0.902456    0.00000    0.00000    0.00000    2    diag
    4      0.762D-02      0.143D-03        -2.80753382      0.902788    0.00000    0.00000    0.00000    3    diag
    5      0.422D-03      0.839D-05        -2.80753382      0.902761    0.00000    0.00000    0.00000    4    diag
    6      0.897D-05      0.209D-06        -2.80753382      0.902761    0.00000    0.00000    0.00000    0    orth

 Final occupancy:   1   0   0   0   0   0   0   0

 !RHF STATE 1.1 Energy                 -2.807533821593
 Nuclear energy                         0.00000000
 One-electron energy                   -3.25891449
 Two-electron energy                    0.45138067
 Virial quotient                       -4.09055734
 !RHF STATE 1.1 Dipole moment           0.00000000     0.00000000     0.00000000
 Dipole moment /Debye                   0.00000000     0.00000000     0.00000000

 Orbital energies:

         1.1          2.1          3.1
     -1.178077    -0.288508    -0.246606

         1.2          2.2
     -0.568097    -0.218717

         1.3          2.3
     -0.568097    -0.218717

         1.4          2.4
     -0.246606    -0.039433

         1.5          2.5
     -0.568097    -0.218717

         1.6          2.6
     -0.246606    -0.039433

         1.7          2.7
     -0.246606    -0.039433

         1.8          2.8
      0.035701     0.820457

 HOMO      1.1    -1.178077 =     -32.0571eV
 LUMO      1.2    -0.568097 =     -15.4587eV
 LUMO-HOMO         0.609980 =      16.5984eV


 **********************************************************************************************************************************
 DATASETS  * FILE   NREC   LENGTH (MB)   RECORD NAMES
              1      21       10.01       500      610      700      900      950      970     1000      129      960     1100   
                                          VAR    BASINP    GEOM    SYMINP    ZMAT    AOBASIS   BASIS     P2S    ABASIS      S 
                                         1400     1410     1420     1200     1210     1080     1600     1650     1300     1700   
                                           T        V       ECP      H0       H01     AOSYM     SMH    MOLCAS    ERIS     OPER   
                                         1380   
                                         JKOP   

              2       9       14.21       200      700     1000      520     4202     5202     2101     2103     2104   
                                        OPTIONS   GEOM     BASIS   MCVARS     RHF     MCSCF     RHF      RHF      RHF  

 PROGRAMS   *        TOTAL       RHF  UCCSD(T)       RHF     MULTI       RHF  UCCSD(T)       RHF     MULTI       RHF       INT
 CPU TIMES  *         1.72      0.09      0.20      0.03      0.05      0.08      0.22      0.03      0.11      0.11      0.59
 REAL TIME  *         4.22 SEC
 DISK USED  *        28.48 MB      
 **********************************************************************************************************************************
 SETTING SCF(3)         =        -2.80753382  AU                              
 SETTING _CC_NORM_MAX   =         2.00000000                                  


1PROGRAM * CCSD (Unrestricted open-shell coupled cluster)     Authors: C. Hampel, H.-J. Werner, 1991, M. Deegan, P.J. Knowles, 1992


 Convergence thresholds:  THRVAR = 1.00D-08  THRDEN = 1.00D-06

 CCSD(T)     terms to be evaluated (factor= 1.000)


 Number of closed-shell orbitals:   1 (   1   0   0   0   0   0   0   0 )
 Number of external orbitals:      74 (  21  14  14   3  14   3   3   2 )

 Memory could be reduced to 0.74 Mwords without degradation in triples

 Number of N-1 electron functions:               2
 Number of N-2 electron functions:               1
 Number of singly external CSFs:                42
 Number of doubly external CSFs:              1125
 Total number of CSFs:                        1167

 Molecular orbitals read from record     2104.2  Type=RHF/CANONICAL (state 1.1)

 Integral transformation finished. Total CPU:   0.01 sec, npass=  1  Memory used:   0.10 MW

 Starting RMP2 calculation

 ITER.      SQ.NORM     CORR.ENERGY   TOTAL ENERGY   ENERGY CHANGE        DEN1      VAR(S)    VAR(P)  DIIS     TIME
   1      1.02177726    -0.03401457    -2.84154839    -0.03401457    -0.00042542  0.94D-15  0.28D-03  1  1     0.02
   2      1.02249599    -0.03449934    -2.84203317    -0.00048478    -0.00000030  0.58D-18  0.16D-06  2  2     0.02
   3      1.02250571    -0.03450364    -2.84203746    -0.00000430    -0.00000000  0.38D-21  0.10D-09  3  3     0.02
   4      1.02250576    -0.03450365    -2.84203747    -0.00000001    -0.00000000  0.61D-24  0.47D-13  4  4     0.02

 Norm of t1 vector:      0.00000025      S-energy:    -0.00000000      T1 diagnostic:  0.00000012
 Norm of t2 vector:      0.15001919      P-energy:    -0.03450365
                                         Alpha-Beta:  -0.03450365
                                         Alpha-Alpha:  0.00000000
                                         Beta-Beta:    0.00000000

 Spin contamination <S**2-Sz**2-Sz>     0.00000000
  Reference energy                     -2.807533821593
  RHF-RMP2 correlation energy          -0.034503648350
 !RHF-RMP2 energy                      -2.842037469943

 Starting UCCSD calculation

 ITER.      SQ.NORM     CORR.ENERGY   TOTAL ENERGY   ENERGY CHANGE        DEN1      VAR(S)    VAR(P)  DIIS     TIME
   1      1.03213416    -0.03972535    -2.84725917    -0.03972535    -0.00403231  0.47D-04  0.26D-02  1  1     0.03
   2      1.04847710    -0.04645699    -2.85399082    -0.00673164    -0.00022208  0.26D-05  0.95D-04  2  2     0.04
   3      1.05130387    -0.04721574    -2.85474956    -0.00075875    -0.00000679  0.25D-06  0.25D-05  3  3     0.05
   4      1.05181186    -0.04736048    -2.85489430    -0.00014473    -0.00000006  0.44D-08  0.18D-07  4  4     0.05
   5      1.05178681    -0.04734929    -2.85488312     0.00001118    -0.00000000  0.29D-09  0.41D-09  5  5     0.06
   6      1.05179564    -0.04735229    -2.85488611    -0.00000300    -0.00000000  0.41D-11  0.21D-10  6  6     0.07
   7      1.05179478    -0.04735192    -2.85488574     0.00000037    -0.00000000  0.14D-12  0.53D-12  6  1     0.08

 Norm of t1 vector:      0.01425984      S-energy:    -0.00000000      T1 diagnostic:  0.00712992
                                                                       D1 diagnostic:  0.01008323
 Norm of t2 vector:      0.22713748      P-energy:    -0.04735192
                                         Alpha-Beta:  -0.04735192
                                         Alpha-Alpha:  0.00000000
                                         Beta-Beta:    0.00000000

 Doubles amplitudes (print threshold =  0.500E-01):

         I         J         SYM. A    SYM. B    A         B      T(IJ, AB) [Alpha-Beta]

         1         1         2         2         1         1     -0.11730791
         1         1         3         3         1         1     -0.11730791
         1         1         5         5         1         1     -0.11730791

 Spin contamination <S**2-Sz**2-Sz>     0.00000000

 Memory could be reduced to 0.74 Mwords without degradation in triples
 

 RESULTS
 =======

  Reference energy                     -2.807533821593
  UCCSD singles energy                 -0.000000002015
  UCCSD pair energy                    -0.047351921377
  UCCSD correlation energy             -0.047351923391
  Triples (T) contribution              0.000000000000
  Total correlation energy             -0.047351923391
 
  RHF-UCCSD energy                     -2.854885744985
  RHF-UCCSD[T] energy                  -2.854885744985
  RHF-UCCSD-T energy                   -2.854885744985
 !RHF-UCCSD(T) energy                  -2.854885744985

 Program statistics:

 Available memory in ccsd:               511999882
 Min. memory needed in ccsd:                 32633
 Max. memory used in ccsd:                   32633
 Max. memory used in cckext:                 60102 ( 7 integral passes)
 Max. memory used in cckint:                102045 ( 1 integral passes)



 **********************************************************************************************************************************
 DATASETS  * FILE   NREC   LENGTH (MB)   RECORD NAMES
              1      21       10.01       500      610      700      900      950      970     1000      129      960     1100   
                                          VAR    BASINP    GEOM    SYMINP    ZMAT    AOBASIS   BASIS     P2S    ABASIS      S 
                                         1400     1410     1420     1200     1210     1080     1600     1650     1300     1700   
                                           T        V       ECP      H0       H01     AOSYM     SMH    MOLCAS    ERIS     OPER   
                                         1380   
                                         JKOP   

              2       9       14.21       200      700     1000      520     4202     5202     2101     2103     2104   
                                        OPTIONS   GEOM     BASIS   MCVARS     RHF     MCSCF     RHF      RHF      RHF  

 PROGRAMS   *        TOTAL  UCCSD(T)       RHF  UCCSD(T)       RHF     MULTI       RHF  UCCSD(T)       RHF     MULTI       RHF
 CPU TIMES  *         1.85      0.13      0.09      0.20      0.03      0.05      0.08      0.22      0.03      0.11      0.11
 REAL TIME  *         4.52 SEC
 DISK USED  *        28.48 MB      
 **********************************************************************************************************************************
 SETTING CCSD(3)        =        -2.85488574  AU                              

 DO I                   =         4.00000000   

 Running procedure=IP3

1PROGRAM * RHF-SCF (OPEN SHELL)       Authors: W. Meyer, H.-J. Werner


 NUMBER OF ELECTRONS:       1+    0-    SPACE SYMMETRY=1    SPIN SYMMETRY: Doublet 
 CONVERGENCE THRESHOLDS:    1.00E-05 (Density)    1.00E-07 (Energy)
 MAX. NUMBER OF ITERATIONS:       60
 INTERPOLATION TYPE:            DIIS
 INTERPOLATION STEPS:              2 (START)      1 (STEP)
 LEVEL SHIFTS:                 -0.30 (CLOSED)  0.00 (OPEN) 



 Orbital guess generated from atomic densities. Full valence occupancy:    1   1   1   0   1   0   0   0


 Molecular orbital dump at record        2105.2

 ITERATION    DDIFF          GRAD             ENERGY        2-EL.EN.            DIPOLE MOMENTS         DIIS   ORB.
    1      0.000D+00      0.000D+00        -1.59081822      0.000000    0.00000    0.00000    0.00000    0    start
    2      0.000D+00      0.214D-01        -1.63352096      0.000000    0.00000    0.00000    0.00000    1    diag,B
    3      0.164D-01      0.545D-02        -1.63623878     -0.000000    0.00000    0.00000    0.00000    2    diag,B
    4      0.561D-02      0.153D-03        -1.63624003     -0.000000    0.00000    0.00000    0.00000    3    diag,B
    5      0.299D-03      0.259D-05        -1.63624003      0.000000    0.00000    0.00000    0.00000    4    diag,B
    6      0.380D-05      0.210D-06        -1.63624003      0.000000    0.00000    0.00000    0.00000    0    orth

 Final alpha occupancy:   1   0   0   0   0   0   0   0
 Final beta  occupancy:   0   0   0   0   0   0   0   0

 !RHF STATE 1.1 Energy                 -1.636240026451
 Nuclear energy                         0.00000000
 One-electron energy                   -1.63624003
 Two-electron energy                    0.00000000
 Virial quotient                       -4.14219795
 !RHF STATE 1.1 Dipole moment           0.00000000     0.00000000     0.00000000
 Dipole moment /Debye                   0.00000000     0.00000000     0.00000000

 Orbital energies:

         1.1          2.1          3.1
     -1.636240    -0.552137    -0.552137

         1.2          2.2
     -0.971005    -0.419685

         1.3          2.3
     -0.971005    -0.419685

         1.4          2.4
     -0.552137    -0.284582

         1.5          2.5
     -0.971005    -0.419685

         1.6          2.6
     -0.552137    -0.284582

         1.7          2.7
     -0.552137    -0.284582

         1.8          2.8
     -0.217872     0.452286

 HOMO      1.1    -1.636240 =     -44.5244eV
 LUMO      1.2    -0.971005 =     -26.4224eV
 LUMO-HOMO         0.665235 =      18.1020eV


 **********************************************************************************************************************************
 DATASETS  * FILE   NREC   LENGTH (MB)   RECORD NAMES
              1      21       10.01       500      610      700      900      950      970     1000      129      960     1100   
                                          VAR    BASINP    GEOM    SYMINP    ZMAT    AOBASIS   BASIS     P2S    ABASIS      S 
                                         1400     1410     1420     1200     1210     1080     1600     1650     1300     1700   
                                           T        V       ECP      H0       H01     AOSYM     SMH    MOLCAS    ERIS     OPER   
                                         1380   
                                         JKOP   

              2      10       16.75       200      700     1000      520     4202     5202     2101     2103     2104     2105   
                                        OPTIONS   GEOM     BASIS   MCVARS     RHF     MCSCF     RHF      RHF      RHF      RHF  

 PROGRAMS   *        TOTAL       RHF  UCCSD(T)       RHF  UCCSD(T)       RHF     MULTI       RHF  UCCSD(T)       RHF     MULTI
 CPU TIMES  *         1.94      0.09      0.13      0.09      0.20      0.03      0.05      0.08      0.22      0.03      0.11
 REAL TIME  *         4.72 SEC
 DISK USED  *        28.48 MB      
 **********************************************************************************************************************************
 SETTING SCF(4)         =        -1.63624003  AU                              
 SETTING _CC_NORM_MAX   =         2.00000000                                  


1PROGRAM * CCSD (Unrestricted open-shell coupled cluster)     Authors: C. Hampel, H.-J. Werner, 1991, M. Deegan, P.J. Knowles, 1992


 Convergence thresholds:  THRVAR = 1.00D-08  THRDEN = 1.00D-06

 CCSD(T)     terms to be evaluated (factor= 1.000)


 Number of active  orbitals:        1 (   1   0   0   0   0   0   0   0 )
 Number of external orbitals:      74 (  21  14  14   3  14   3   3   2 )

 Memory could be reduced to 0.74 Mwords without degradation in triples

 Number of N-1 electron functions:               1
 Number of N-2 electron functions:               0
 Number of singly external CSFs:                22
 Number of doubly external CSFs:                 0
 Total number of CSFs:                          22

 Molecular orbitals read from record     2105.2  Type=RHF/CANONICAL (state 1.1)

 Integral transformation finished. Total CPU:   0.01 sec, npass=  1  Memory used:   0.10 MW

 Starting RMP2 calculation

 ITER.      SQ.NORM     CORR.ENERGY   TOTAL ENERGY   ENERGY CHANGE        DEN1      VAR(S)    VAR(P)  DIIS     TIME
   1      1.00000000    -0.00000000    -1.63624003    -0.00000000    -0.00000000  0.56D-16  0.00D+00  1  1     0.01

 Norm of t1 vector:      0.00000011      S-energy:    -0.00000000      T1 diagnostic:  0.00000008
 Norm of t2 vector:      0.00000000      P-energy:     0.00000000
                                         Alpha-Beta:   0.00000000
                                         Alpha-Alpha:  0.00000000
                                         Beta-Beta:    0.00000000

 Spin contamination <S**2-Sz**2-Sz>     0.00000000
  Reference energy                     -1.636240026451
  RHF-RMP2 correlation energy          -0.000000000000
 !RHF-RMP2 energy                      -1.636240026451

 Starting UCCSD calculation

 ITER.      SQ.NORM     CORR.ENERGY   TOTAL ENERGY   ENERGY CHANGE        DEN1      VAR(S)    VAR(P)  DIIS     TIME
   1      1.00000000    -0.00000000    -1.63624003    -0.00000000    -0.00000000  0.46D-15  0.00D+00  1  1     0.01

 Norm of t1 vector:      0.00000013      S-energy:    -0.00000000      T1 diagnostic:  0.00000009
                                                                       D1 diagnostic:  0.00000009
 Norm of t2 vector:      0.00000000      P-energy:     0.00000000
                                         Alpha-Beta:   0.00000000
                                         Alpha-Alpha:  0.00000000
                                         Beta-Beta:    0.00000000

 Spin contamination <S**2-Sz**2-Sz>     0.00000000

 Memory could be reduced to 0.76 Mwords without degradation in triples
 

 RESULTS
 =======

  Reference energy                     -1.636240026451
  UCCSD singles energy                 -0.000000000000
  UCCSD pair energy                     0.000000000000
  UCCSD correlation energy             -0.000000000000
  Triples (T) contribution              0.000000000000
  Total correlation energy             -0.000000000000
 
  RHF-UCCSD energy                     -1.636240026451
  RHF-UCCSD[T] energy                  -1.636240026451
  RHF-UCCSD-T energy                   -1.636240026451
 !RHF-UCCSD(T) energy                  -1.636240026451

 Program statistics:

 Available memory in ccsd:               511999882
 Min. memory needed in ccsd:                 31059
 Max. memory used in ccsd:                   31059
 Max. memory used in cckext:                 57814 ( 1 integral passes)
 Max. memory used in cckint:                102475 ( 1 integral passes)



 **********************************************************************************************************************************
 DATASETS  * FILE   NREC   LENGTH (MB)   RECORD NAMES
              1      21       10.01       500      610      700      900      950      970     1000      129      960     1100   
                                          VAR    BASINP    GEOM    SYMINP    ZMAT    AOBASIS   BASIS     P2S    ABASIS      S 
                                         1400     1410     1420     1200     1210     1080     1600     1650     1300     1700   
                                           T        V       ECP      H0       H01     AOSYM     SMH    MOLCAS    ERIS     OPER   
                                         1380   
                                         JKOP   

              2      10       16.75       200      700     1000      520     4202     5202     2101     2103     2104     2105   
                                        OPTIONS   GEOM     BASIS   MCVARS     RHF     MCSCF     RHF      RHF      RHF      RHF  

 PROGRAMS   *        TOTAL  UCCSD(T)       RHF  UCCSD(T)       RHF  UCCSD(T)       RHF     MULTI       RHF  UCCSD(T)       RHF
 CPU TIMES  *         2.01      0.06      0.09      0.13      0.09      0.20      0.03      0.05      0.08      0.22      0.03
 REAL TIME  *         4.92 SEC
 DISK USED  *        28.51 MB      
 **********************************************************************************************************************************
 SETTING CCSD(4)        =        -1.63624003  AU                              

 DO I                   =         5.00000000   

 Running procedure=EA

1PROGRAM * RHF-SCF (OPEN SHELL)       Authors: W. Meyer, H.-J. Werner


 NUMBER OF ELECTRONS:       4+    1-    SPACE SYMMETRY=8    SPIN SYMMETRY: Quartet 
 CONVERGENCE THRESHOLDS:    1.00E-05 (Density)    1.00E-07 (Energy)
 MAX. NUMBER OF ITERATIONS:       60
 INTERPOLATION TYPE:            DIIS
 INTERPOLATION STEPS:              2 (START)      1 (STEP)
 LEVEL SHIFTS:                 -0.30 (CLOSED)  0.00 (OPEN) 


 Singly occupied orbitals:      1.2       1.3       1.5
 Orbital guess generated from atomic densities. Full valence occupancy:    1   1   1   0   1   0   0   0


 Molecular orbital dump at record        2106.2

 ITERATION    DDIFF          GRAD             ENERGY        2-EL.EN.            DIPOLE MOMENTS         DIIS   ORB.
    1      0.000D+00      0.000D+00        -3.69579762      6.020925    0.00000    0.00000    0.00000    0    start
    2      0.000D+00      0.457D-02        -3.70005057      5.852275    0.00000    0.00000    0.00000    1    diag,B
    3      0.619D-02      0.160D-02        -3.70063530      5.822591    0.00000    0.00000    0.00000    2    diag,B
    4      0.287D-02      0.684D-03        -3.70078811      5.818291    0.00000    0.00000    0.00000    3    diag,B
    5      0.182D-02      0.148D-03        -3.70079678      5.820484    0.00000    0.00000    0.00000    4    diag,B
    6      0.739D-03      0.826D-05        -3.70079683      5.820743    0.00000    0.00000    0.00000    5    diag,B
    7      0.370D-04      0.176D-05        -3.70079683      5.820787    0.00000    0.00000    0.00000    6    fixocc
    8      0.808D-05      0.383D-06        -3.70079683      5.820800    0.00000    0.00000    0.00000    0    orth

 Final alpha occupancy:   1   1   1   0   1   0   0   0
 Final beta  occupancy:   1   0   0   0   0   0   0   0

 !RHF STATE 1.8 Energy                 -3.700796833150
 Nuclear energy                         0.00000000
 One-electron energy                   -6.61119678
 Two-electron energy                    2.91039995
 Virial quotient                       -2.62477494
 !RHF STATE 1.8 Dipole moment           0.00000000     0.00000000     0.00000000
 Dipole moment /Debye                   0.00000000     0.00000000     0.00000000

 Orbital energies:

         1.1          2.1          3.1
     -0.302341     0.207070     0.307131

         1.2          2.2          3.2
     -0.061907     0.203491     0.645275

         1.3          2.3          3.3
     -0.061907     0.203491     0.645275

         1.4          2.4
      0.307131     0.649033

         1.5          2.5          3.5
     -0.061907     0.203491     0.645275

         1.6          2.6
      0.307131     0.649033

         1.7          2.7
      0.307131     0.649033

         1.8          2.8
      0.683645     1.662486

 HOMO      1.2    -0.061907 =      -1.6846eV
 LUMO      2.2     0.203491 =       5.5373eV
 LUMO-HOMO         0.265398 =       7.2219eV


 **********************************************************************************************************************************
 DATASETS  * FILE   NREC   LENGTH (MB)   RECORD NAMES
              1      21       10.01       500      610      700      900      950      970     1000      129      960     1100   
                                          VAR    BASINP    GEOM    SYMINP    ZMAT    AOBASIS   BASIS     P2S    ABASIS      S 
                                         1400     1410     1420     1200     1210     1080     1600     1650     1300     1700   
                                           T        V       ECP      H0       H01     AOSYM     SMH    MOLCAS    ERIS     OPER   
                                         1380   
                                         JKOP   

              2      11       19.29       200      700     1000      520     4202     5202     2101     2103     2104     2105   
                                        OPTIONS   GEOM     BASIS   MCVARS     RHF     MCSCF     RHF      RHF      RHF      RHF  
                                         2106   
                                          RHF  

 PROGRAMS   *        TOTAL       RHF  UCCSD(T)       RHF  UCCSD(T)       RHF  UCCSD(T)       RHF     MULTI       RHF  UCCSD(T)
 CPU TIMES  *         2.12      0.12      0.06      0.09      0.13      0.09      0.20      0.03      0.05      0.08      0.22
 REAL TIME  *         5.14 SEC
 DISK USED  *        29.53 MB      
 **********************************************************************************************************************************
 SETTING SCF(5)         =        -3.70079683  AU                              
 SETTING _CC_NORM_MAX   =         2.00000000                                  


1PROGRAM * CCSD (Unrestricted open-shell coupled cluster)     Authors: C. Hampel, H.-J. Werner, 1991, M. Deegan, P.J. Knowles, 1992


 Convergence thresholds:  THRVAR = 1.00D-08  THRDEN = 1.00D-06

 CCSD(T)     terms to be evaluated (factor= 1.000)


 Number of closed-shell orbitals:   1 (   1   0   0   0   0   0   0   0 )
 Number of active  orbitals:        3 (   0   1   1   0   1   0   0   0 )
 Number of external orbitals:      71 (  21  13  13   3  13   3   3   2 )

 Memory could be reduced to 0.88 Mwords without degradation in triples

 Number of N-1 electron functions:               5
 Number of N-2 electron functions:              10
 Number of singly external CSFs:                84
 Number of doubly external CSFs:              5757
 Total number of CSFs:                        5841

 Molecular orbitals read from record     2106.2  Type=RHF/CANONICAL (state 1.8)

 Integral transformation finished. Total CPU:   0.02 sec, npass=  1  Memory used:   0.13 MW

 Starting RMP2 calculation

 ITER.      SQ.NORM     CORR.ENERGY   TOTAL ENERGY   ENERGY CHANGE        DEN1      VAR(S)    VAR(P)  DIIS     TIME
   1      1.05553854    -0.07836073    -3.77915757    -0.07836073    -0.00091582  0.87D-06  0.73D-03  1  1     0.03
   2      1.05759287    -0.07942820    -3.78022504    -0.00106747    -0.00000575  0.54D-08  0.52D-05  2  2     0.03
   3      1.05770033    -0.07945765    -3.78025448    -0.00002944    -0.00000004  0.45D-10  0.35D-07  3  3     0.03
   4      1.05770468    -0.07945874    -3.78025557    -0.00000109    -0.00000000  0.67D-13  0.16D-09  4  4     0.03
   5      1.05770474    -0.07945874    -3.78025557     0.00000000    -0.00000000  0.39D-15  0.66D-12  5  5     0.03

 Norm of t1 vector:      0.01045260      S-energy:    -0.00018111      T1 diagnostic:  0.00020640
 Norm of t2 vector:      0.23999058      P-energy:    -0.07927762
                                         Alpha-Beta:  -0.05697180
                                         Alpha-Alpha: -0.02230583
                                         Beta-Beta:    0.00000000

 Spin contamination <S**2-Sz**2-Sz>     0.00062597
  Reference energy                     -3.700796833150
  RHF-RMP2 correlation energy          -0.079458737259
 !RHF-RMP2 energy                      -3.780255570409

 Starting UCCSD calculation

 ITER.      SQ.NORM     CORR.ENERGY   TOTAL ENERGY   ENERGY CHANGE        DEN1      VAR(S)    VAR(P)  DIIS     TIME
   1      1.07184197    -0.08816442    -3.78896125    -0.08816442    -0.00517472  0.20D-03  0.35D-02  1  1     0.06
   2      1.08512475    -0.09429579    -3.79509262    -0.00613137    -0.00016775  0.11D-04  0.92D-04  2  2     0.08
   3      1.08694115    -0.09475599    -3.79555282    -0.00046021    -0.00000785  0.35D-05  0.45D-05  3  3     0.10
   4      1.08740581    -0.09486634    -3.79566317    -0.00011035    -0.00000090  0.88D-06  0.42D-06  4  4     0.12
   5      1.08745628    -0.09485711    -3.79565395     0.00000922    -0.00000014  0.21D-06  0.40D-07  5  5     0.14
   6      1.08750683    -0.09486791    -3.79566474    -0.00001079    -0.00000002  0.23D-07  0.60D-08  6  6     0.16
   7      1.08750727    -0.09486458    -3.79566141     0.00000333    -0.00000000  0.11D-08  0.12D-08  6  1     0.18
   8      1.08750818    -0.09486418    -3.79566101     0.00000040    -0.00000000  0.35D-10  0.17D-09  6  2     0.20

 Norm of t1 vector:      0.02385289      S-energy:    -0.00016229      T1 diagnostic:  0.00690533
                                                                       D1 diagnostic:  0.01106902
 Norm of t2 vector:      0.29485458      P-energy:    -0.09470189
                                         Alpha-Beta:  -0.06993223
                                         Alpha-Alpha: -0.02476966
                                         Beta-Beta:    0.00000000

 Doubles amplitudes (print threshold =  0.500E-01):

         I         J         SYM. A    SYM. B    A         B      T(IJ, AB) [Alpha-Beta]

         2         1         1         2         6         1      0.05258584
         3         1         1         3         5         1      0.05055545

 Spin contamination <S**2-Sz**2-Sz>     0.00678090

 Memory could be reduced to 0.98 Mwords without degradation in triples
 

 RESULTS
 =======

  Reference energy                     -3.700796833150
  UCCSD singles energy                 -0.000162288243
  UCCSD pair energy                    -0.094701889715
  UCCSD correlation energy             -0.094864177958
  Triples (T) contribution             -0.004996874278
  Total correlation energy             -0.099861052236
 
  RHF-UCCSD energy                     -3.795661011108
  RHF-UCCSD[T] energy                  -3.800666110362
  RHF-UCCSD-T energy                   -3.800674544534
 !RHF-UCCSD(T) energy                  -3.800657885386

 Program statistics:

 Available memory in ccsd:               511999732
 Min. memory needed in ccsd:                 49814
 Max. memory used in ccsd:                   54975
 Max. memory used in cckext:                 75060 ( 8 integral passes)
 Max. memory used in cckint:                133602 ( 1 integral passes)



 **********************************************************************************************************************************
 DATASETS  * FILE   NREC   LENGTH (MB)   RECORD NAMES
              1      21       10.01       500      610      700      900      950      970     1000      129      960     1100   
                                          VAR    BASINP    GEOM    SYMINP    ZMAT    AOBASIS   BASIS     P2S    ABASIS      S 
                                         1400     1410     1420     1200     1210     1080     1600     1650     1300     1700   
                                           T        V       ECP      H0       H01     AOSYM     SMH    MOLCAS    ERIS     OPER   
                                         1380   
                                         JKOP   

              2      11       19.29       200      700     1000      520     4202     5202     2101     2103     2104     2105   
                                        OPTIONS   GEOM     BASIS   MCVARS     RHF     MCSCF     RHF      RHF      RHF      RHF  
                                         2106   
                                          RHF  

 PROGRAMS   *        TOTAL  UCCSD(T)       RHF  UCCSD(T)       RHF  UCCSD(T)       RHF  UCCSD(T)       RHF     MULTI       RHF
 CPU TIMES  *         2.37      0.24      0.12      0.06      0.09      0.13      0.09      0.20      0.03      0.05      0.08
 REAL TIME  *         5.61 SEC
 DISK USED  *        36.13 MB      
 **********************************************************************************************************************************
 SETTING CCSD(5)        =        -3.80065789  AU                              
 Output type csv         
                                                                                                                                                                                                                                                                

      SCF,CCSD
   -3.66466763,   -3.74947181
   -3.38302177,   -3.45097618
   -2.80753382,   -2.85488574
   -1.63624003,   -1.63624003
   -3.70079683,   -3.80065789
                                                  

        UCCSD(T)        RHF-SCF         UCCSD(T)        RHF-SCF         UCCSD(T)        RHF-SCF         UCCSD(T)        RHF-SCF 
     -3.80065789     -3.70079683     -1.63624003     -1.63624003     -2.85488574     -2.80753382     -3.45097618     -3.38302177
 **********************************************************************************************************************************
 Variable memory released
