
 Primary working directories    : /tmp/cmelton
 Secondary working directories  : /tmp/cmelton
 Wavefunction directory         : /remote/cmelton/wfu/
 Main file repository           : /tmp/cmelton/

 SHA1      : 4c1979699e6aeda0524d0210415ba82a958648b0
 NAME      : 2012.1.39
 ARCHNAME  : Linux/x86_64
 FC        : /projects/sems/install/rhel6-x86_64/sems/compiler/intel/16.0.1/base/bin/ifort
 FCVERSION : 16.0.1
 BLASLIB   : -L/projects/sems/install/rhel6-x86_64/sems/compiler/intel/16.0.1/base/compilers_and_libraries_2016.1.150/linux/mkl/lib/intel64 -lmkl_intel_ilp64 -lmkl_sequential -lmkl_core
 id        : sandiacon

 Nodes             nprocs
 s989256.sandia.gov    1

 Using customized tuning parameters: mindgm=7; mindgv=16; mindgc=1; mindgr=1; noblas=0; minvec=7
 default implementation of scratch files=df  

 ***,Calculation for Be atom, singlet and triplet
 memory,512,m
 gthresh,twoint=1.0E-12
 geometry={
 1
 Al
 Al  0.0 0.0 0.0
 }
 
 basis={
 ecp,Al,10,2,0
 5
   1, 0.0, 3
   1, 0.0,-11
   1  ,  10.99788500  ,   11.00000000
   3  ,  11.22045000  ,  120.97673500
   2  ,  11.08325000  ,  -80.39326600
 2
   2  ,  80.97577200  ,   25.00635800
   2  ,  24.39824000  ,  112.36079900
 1
   2, 1.0, 0.0
 Including file /remote/cmelton/data/corrECP/2nd_row/aug-cc-pCV5Z.basis
 }
 
 Including file /remote/cmelton/data/corrECP/2nd_row/Al/He-core/basis2/states.proc
 
 do i=1,5
 if (i.eq.1) then
     GS
 else if (i.eq.2) then
     IP1
 else if (i.eq.3) then
     IP2
 else if (i.eq.4) then
     IP3
 else if (i.eq.5) then
     EA
 endif
 scf(i)=energy
 _CC_NORM_MAX=2.0
 {uccsd(t),maxit=400;core}
 ccsd(i)=energy
 enddo
 
 table,scf,ccsd
 save
 type,csv

 Variables initialized (782), CPU time= 0.01 sec
 Commands  initialized (547), CPU time= 0.01 sec, 517 directives.
 Default parameters read. Elapsed time= 0.26 sec

 Checking input...
 Passed
1


                                         ***  PROGRAM SYSTEM MOLPRO  ***
                         Copyright, University College Cardiff Consultants Limited, 2008

                                    Version 2012.1 linked Aug  2 2016 14:07:26


 **********************************************************************************************************************************
 LABEL *   Calculation for Be atom, singlet and triplet                                  
 Linux-3.10.0-693.21.1.el7.x86_64/s989256.sandia.gov(x86_64) 64 bit serial version       DATE: 27-Apr-18          TIME: 13:27:44  
 **********************************************************************************************************************************

 SHA1:             4c1979699e6aeda0524d0210415ba82a958648b0
 **********************************************************************************************************************************

 THRESHOLDS:

 ZERO    =  1.00D-12  ONEINT  =  1.00D-12  TWOINT  =  1.00D-12  PREFAC  =  1.00D-14  LOCALI  =  1.00D-09  EORDER  =  1.00D-04
 ENERGY  =  0.00D+00  ETEST   =  0.00D+00  EDENS   =  0.00D+00  THRDEDEF=  1.00D-06  GRADIENT=  1.00D-02  STEP    =  1.00D-03
 ORBITAL =  1.00D-05  CIVEC   =  1.00D-05  COEFF   =  1.00D-04  PRINTCI =  5.00D-02  PUNCHCI =  9.90D+01  OPTGRAD =  3.00D-04
 OPTENERG=  1.00D-06  OPTSTEP =  3.00D-04  THRGRAD =  1.00D-10  COMPRESS=  1.00D-11  VARMIN  =  1.00D-07  VARMAX  =  1.00D-03
 THRDOUB =  0.00D+00  THRDIV  =  1.00D-05  THRRED  =  1.00D-07  THRPSP  =  1.00D+00  THRDC   =  1.00D-10  THRCS   =  1.00D-10
 THRNRM  =  1.00D-08  THREQ   =  0.00D+00  THRDE   =  1.00D+00  THRREF  =  1.00D-05  SPARFAC =  1.00D+00  THRDLP  =  1.00D-07
 THRDIA  =  1.00D-10  THRDLS  =  1.00D-07  THRGPS  =  0.00D+00  THRKEX  =  0.00D+00  THRDIS  =  2.00D-01  THRVAR  =  1.00D-10
 THRLOC  =  1.00D-06  THRGAP  =  1.00D-06  THRLOCT = -1.00D+00  THRGAPT = -1.00D+00  THRORB  =  1.00D-06  THRMLTP =  0.00D+00
 THRCPQCI=  1.00D-10  KEXTA   =  0.00D+00  THRCOARS=  0.00D+00  SYMTOL  =  1.00D-06  GRADTOL =  1.00D-06  THROVL  =  1.00D-08
 THRORTH =  1.00D-08  GRID    =  1.00D-06  GRIDMAX =  1.00D-03  DTMAX   =  0.00D+00  THROCCDE=  1.00D-01  THROCCDE=  1.00D-01



Geometry recognized as XYZ


 Variable memory set to  512000000 words,  buffer space   230000 words

 SETTING BASIS          =    USERDEF

 DO I                   =         1.00000000   

 Running procedure=GS


 Recomputing integrals since basis changed


 Using spherical harmonics


1PROGRAM * SEWARD (Integral evaluation for generally contracted gaussian basis sets)     Author: Roland Lindh, 1990

 Geometry written to block  1 of record 700

 Orientation using atomic masses  
 Molecule type: Atom
 Symmetry elements: X,Y,Z
 Rotational constants:       0.0000000      0.0000000      0.0000000 GHz  (calculated with average atomic masses)

 Point group  D2h 



 ATOMIC COORDINATES

 NR  ATOM    CHARGE       X              Y              Z

   1  AL      3.00    0.000000000    0.000000000    0.000000000

 NUCLEAR CHARGE:                    3
 NUMBER OF PRIMITIVE AOS:         322
 NUMBER OF SYMMETRY AOS:          232
 NUMBER OF CONTRACTIONS:          232   (  54Ag  +  36B3u +  36B2u +  19B1g +  36B1u +  19B2g +  19B3g +  13Au  )
 NUMBER OF CORE ORBITALS:           0   (   0Ag  +   0B3u +   0B2u +   0B1g +   0B1u +   0B2g +   0B3g +   0Au  )
 NUMBER OF VALENCE ORBITALS:        4   (   1Ag  +   1B3u +   1B2u +   0B1g +   1B1u +   0B2g +   0B3g +   0Au  )


 NUCLEAR REPULSION ENERGY    0.00000000

 EXTRA SYMMETRY OF AOS IN SYMMETRY 1:   1 1 1 1 1 1 1 1 1 1   1 1 1 1 1 1 1 1 1 1   1 2 3 2 3 2 3 2 3 2   3 2 3 2 3 2 3 2 3 4
                                        5 6 4 5 6 4 5 6 4 5   6 4 5 6
 EXTRA SYMMETRY OF AOS IN SYMMETRY 2:   1 1 1 1 1 1 1 1 1 1   1 1 1 2 3 2 3 2 3 2   3 2 3 2 3 2 3 4 5 6   4 5 6 4 5 6
 EXTRA SYMMETRY OF AOS IN SYMMETRY 3:   1 1 1 1 1 1 1 1 1 1   1 1 1 2 3 2 3 2 3 2   3 2 3 2 3 2 3 4 5 6   4 5 6 4 5 6
 EXTRA SYMMETRY OF AOS IN SYMMETRY 4:   1 1 1 1 1 1 1 1 1 2   3 2 3 2 3 2 3 2 3
 EXTRA SYMMETRY OF AOS IN SYMMETRY 5:   1 1 1 1 1 1 1 1 1 1   1 1 1 2 3 2 3 2 3 2   3 2 3 2 3 2 3 4 5 6   4 5 6 4 5 6
 EXTRA SYMMETRY OF AOS IN SYMMETRY 6:   1 1 1 1 1 1 1 1 1 2   3 2 3 2 3 2 3 2 3
 EXTRA SYMMETRY OF AOS IN SYMMETRY 7:   1 1 1 1 1 1 1 1 1 2   3 2 3 2 3 2 3 2 3
 EXTRA SYMMETRY OF AOS IN SYMMETRY 8:   1 1 1 1 1 1 1 2 3 2   3 2 3

 Eigenvalues of metric

         1 0.316E-03 0.913E-03 0.241E-02 0.475E-02 0.831E-02 0.152E-01 0.170E-01 0.170E-01
         2 0.545E-02 0.192E-01 0.422E-01 0.498E-01 0.498E-01 0.806E-01 0.160E+00 0.160E+00
         3 0.545E-02 0.192E-01 0.422E-01 0.498E-01 0.498E-01 0.806E-01 0.160E+00 0.160E+00
         4 0.170E-01 0.516E-01 0.120E+00 0.179E+00 0.179E+00 0.264E+00 0.459E+00 0.459E+00
         5 0.545E-02 0.192E-01 0.422E-01 0.498E-01 0.498E-01 0.806E-01 0.160E+00 0.160E+00
         6 0.170E-01 0.516E-01 0.120E+00 0.179E+00 0.179E+00 0.264E+00 0.459E+00 0.459E+00
         7 0.170E-01 0.516E-01 0.120E+00 0.179E+00 0.179E+00 0.264E+00 0.459E+00 0.459E+00
         8 0.498E-01 0.160E+00 0.305E+00 0.305E+00 0.348E+00 0.760E+00 0.100E+01 0.100E+01


 Contracted 2-electron integrals neglected if value below      1.0D-12
 AO integral compression algorithm  1   Integral accuracy      1.0D-12

     218.890 MB (compressed) written to integral file ( 36.3%)


 NUMBER OF SORTED TWO-ELECTRON INTEGRALS:   47059456.     BUFFER LENGTH:  32768
 NUMBER OF SEGMENTS:   3  SEGMENT LENGTH:   15999826      RECORD LENGTH: 524288

 Memory used in sort:      16.56 MW

 SORT1 READ    75284716. AND WROTE    28075411. INTEGRALS IN     82 RECORDS. CPU TIME:     1.64 SEC, REAL TIME:     1.89 SEC
 SORT2 READ    28075411. AND WROTE    47059456. INTEGRALS IN    835 RECORDS. CPU TIME:     0.80 SEC, REAL TIME:     0.97 SEC

 FILE SIZES:   FILE 1:   227.7 MBYTE,  FILE 4:   344.0 MBYTE,   TOTAL:    571.6 MBYTE

 OPERATOR DM      FOR CENTER  0  COORDINATES:    0.000000    0.000000    0.000000


 **********************************************************************************************************************************
 DATASETS  * FILE   NREC   LENGTH (MB)   RECORD NAMES
              1      20      138.50       500      610      700      900      950      970     1000      129      960     1100   
                                          VAR    BASINP    GEOM    SYMINP    ZMAT    AOBASIS   BASIS     P2S    ABASIS      S 
                                         1400     1410     1420     1200     1210     1080     1600     1650     1300     1700   
                                           T        V       ECP      H0       H01     AOSYM     SMH    MOLCAS    ERIS     OPER   

 PROGRAMS   *        TOTAL       INT
 CPU TIMES  *        12.97     12.77
 REAL TIME  *        14.32 SEC
 DISK USED  *       573.27 MB      
 **********************************************************************************************************************************

1PROGRAM * RHF-SCF (OPEN SHELL)       Authors: W. Meyer, H.-J. Werner


 NUMBER OF ELECTRONS:       6+    5-    SPACE SYMMETRY=2    SPIN SYMMETRY: Doublet 
 CONVERGENCE THRESHOLDS:    1.00E-05 (Density)    1.00E-07 (Energy)
 MAX. NUMBER OF ITERATIONS:       60
 INTERPOLATION TYPE:            DIIS
 INTERPOLATION STEPS:              2 (START)      1 (STEP)
 LEVEL SHIFTS:                 -0.30 (CLOSED)  0.00 (OPEN) 


 Singly occupied orbitals:      2.2
 Orbital guess generated from atomic densities. Full valence occupancy:    1   1   1   0   1   0   0   0


 Molecular orbital dump at record        4202.2

 ITERATION    DDIFF          GRAD             ENERGY        2-EL.EN.            DIPOLE MOMENTS         DIIS   ORB.
    1      0.000D+00      0.000D+00       -69.88864988    149.921403    0.00000    0.00000    0.00000    0    start
    2      0.000D+00      0.392D+00       -78.89867427     78.448174    0.00000    0.00000    0.00000    1    diag,B
    3      0.771D-01      0.151D+00       -80.89091597    101.137331    0.00000    0.00000    0.00000    2    diag,B
    4      0.328D-01      0.169D-01       -80.93641225    100.980303    0.00000    0.00000    0.00000    3    diag,B
    5      0.575D-02      0.354D-02       -80.94519375    100.935882    0.00000    0.00000    0.00000    4    diag,B
    6      0.372D-02      0.131D-02       -80.94763476    101.010232    0.00000    0.00000    0.00000    5    diag,B
    7      0.250D-02      0.378D-03       -80.94784743    101.064707    0.00000    0.00000    0.00000    6    fixocc
    8      0.817D-03      0.699D-04       -80.94785198    101.073800    0.00000    0.00000    0.00000    7    diag,B
    9      0.131D-03      0.149D-04       -80.94785230    101.074382    0.00000    0.00000    0.00000    8    diag,B
   10      0.363D-04      0.438D-05       -80.94785233    101.074161    0.00000    0.00000    0.00000    9    orth
   11      0.244D-04      0.542D-06       -80.94785233    101.074095    0.00000    0.00000    0.00000    9    diag,B
   12      0.322D-05      0.888D-07       -80.94785233    101.074099    0.00000    0.00000    0.00000    0    orth

 Final alpha occupancy:   2   2   1   0   1   0   0   0
 Final beta  occupancy:   2   1   1   0   1   0   0   0

 !RHF STATE 1.2 Energy                -80.947852330321
 Nuclear energy                         0.00000000
 One-electron energy                 -131.48490182
 Two-electron energy                   50.53704949
 Virial quotient                       -1.28757523
 !RHF STATE 1.2 Dipole moment           0.00000000     0.00000000     0.00000000
 Dipole moment /Debye                   0.00000000     0.00000000     0.00000000

 Orbital energies:

         1.1          2.1          3.1          4.1
     -4.889022    -0.394304     0.033551     0.086435

         1.2          2.2          3.2          4.2
     -3.271507    -0.209898     0.033011     0.176340

         1.3          2.3          3.3
     -3.272810     0.007146     0.042882

         1.4          2.4
      0.087168     0.258252

         1.5          2.5          3.5
     -3.272810     0.007146     0.042882

         1.6          2.6
      0.087168     0.258252

         1.7          2.7
      0.086435     0.266064

         1.8          2.8
      0.203236     0.572909

 HOMO      2.2    -0.209898 =      -5.7116eV
 LUMO      2.3     0.007146 =       0.1945eV
 LUMO-HOMO         0.217044 =       5.9061eV


 **********************************************************************************************************************************
 DATASETS  * FILE   NREC   LENGTH (MB)   RECORD NAMES
              1      20      138.50       500      610      700      900      950      970     1000      129      960     1100   
                                          VAR    BASINP    GEOM    SYMINP    ZMAT    AOBASIS   BASIS     P2S    ABASIS      S 
                                         1400     1410     1420     1200     1210     1080     1600     1650     1300     1700   
                                           T        V       ECP      H0       H01     AOSYM     SMH    MOLCAS    ERIS     OPER   

              2       5        4.31       200      700     1000      520     4202   
                                        OPTIONS   GEOM     BASIS   MCVARS     RHF  

 PROGRAMS   *        TOTAL       RHF       INT
 CPU TIMES  *        14.40      1.43     12.77
 REAL TIME  *        16.03 SEC
 DISK USED  *       573.27 MB      
 **********************************************************************************************************************************

1PROGRAM * MULTI (Direct Multiconfiguration SCF)       Authors: P.J. Knowles, H.-J. Werner (1984)     S.T. Elbert (1988)


 Number of closed-shell orbitals:   5 (   2   1   1   0   1   0   0   0 )
 Number of active  orbitals:        3 (   0   1   1   0   1   0   0   0 )
 Number of external orbitals:     224 (  52  34  34  19  34  19  19  13 )

 State symmetry 1

 Number of electrons:     1    Spin symmetry=Doublet   Space symmetry=2
 Number of states:        1
 Number of CSFs:          1   (1 determinants, 3 intermediate states)

 State symmetry 2

 Number of electrons:     1    Spin symmetry=Doublet   Space symmetry=3
 Number of states:        1
 Number of CSFs:          1   (1 determinants, 3 intermediate states)

 State symmetry 3

 Number of electrons:     1    Spin symmetry=Doublet   Space symmetry=5
 Number of states:        1
 Number of CSFs:          1   (1 determinants, 3 intermediate states)

 Molecular orbitals read from record     4202.2  Type=RHF/CANONICAL (state 1.2)
 *** IN SYMMETRY 1 ORBITAL  1 SYMMETRY CONTAMINATION OF 0.136D-02 HAS BEEN REMOVED
 *** IN SYMMETRY 1 ORBITAL  2 SYMMETRY CONTAMINATION OF 0.110D-01 HAS BEEN REMOVED

 EXTRA SYMMETRY OF MOS IN SYMMETRY 1:   1 1 1 2 3 1 3 2 4 5   6 2 3 1 4 5 6 2 3 1   4 5 6 2 3 1 2 3 4 5   6 1 2 3 1 2 3 4 5 6
                                        1 2 3 1 1 1 1 1 1 1   1 1 1 1
 *** IN SYMMETRY 2 ORBITAL  1 SYMMETRY CONTAMINATION OF 0.276D-02 HAS BEEN REMOVED
 *** IN SYMMETRY 2 ORBITAL  2 SYMMETRY CONTAMINATION OF 0.455D-03 HAS BEEN REMOVED
 EXTRA SYMMETRY OF MOS IN SYMMETRY 2:   1 1 1 1 2 3 2 3 1 2   3 5 6 4 1 2 3 5 6 4   1 2 3 1 2 3 5 6 4 1   2 3 1 1 1 1
 *** IN SYMMETRY 3 ORBITAL  1 SYMMETRY CONTAMINATION OF 0.197D-02 HAS BEEN REMOVED
 *** IN SYMMETRY 3 ORBITAL  2 SYMMETRY CONTAMINATION OF 0.107D-01 HAS BEEN REMOVED
 EXTRA SYMMETRY OF MOS IN SYMMETRY 3:   1 1 1 1 2 3 2 3 1 2   4 3 5 6 1 2 3 4 5 6   1 2 3 1 2 3 4 5 6 1   2 3 1 1 1 1
 EXTRA SYMMETRY OF MOS IN SYMMETRY 4:   1 1 2 3 1 2 3 1 2 3   1 1 2 3 1 1 2 3 1
 *** IN SYMMETRY 5 ORBITAL  1 SYMMETRY CONTAMINATION OF 0.227D-02 HAS BEEN REMOVED
 *** IN SYMMETRY 5 ORBITAL  2 SYMMETRY CONTAMINATION OF 0.123D-01 HAS BEEN REMOVED
 EXTRA SYMMETRY OF MOS IN SYMMETRY 5:   1 1 1 1 2 3 2 3 1 2   6 3 5 4 1 2 3 6 5 4   1 2 3 1 2 3 6 5 4 1   2 3 1 1 1 1
 EXTRA SYMMETRY OF MOS IN SYMMETRY 6:   1 1 3 2 1 3 2 1 3 2   1 1 3 2 1 1 3 2 1
 EXTRA SYMMETRY OF MOS IN SYMMETRY 7:   1 1 2 3 1 2 3 1 2 3   1 1 2 3 1 1 2 3 1
 EXTRA SYMMETRY OF MOS IN SYMMETRY 8:   1 1 1 3 2 1 3 2 1 1   3 2 1

 Wavefunction dump at record             5202.2

 Convergence thresholds  0.10E-01 (gradient)  0.10E-05 (energy)  0.10E-02 (step length)

 Weight factors for state symmetry  1:    0.33333
 Weight factors for state symmetry  2:    0.33333
 Weight factors for state symmetry  3:    0.33333

 Number of orbital rotations:      311   (     3 Core/Active    206 Core/Virtual   0 Active/Active    102 Active/Virtual)
 Total number of variables:        314


 ITER. MIC  NCI  NEG     ENERGY(VAR)     ENERGY(PROJ)   ENERGY CHANGE     GRAD(0)  GRAD(ORB)   GRAD(CI)     STEP       TIME

   1   22   21    0     -80.91585167     -80.94775668   -0.03190501    0.05030498 0.00000000 0.00000000  0.81D+00      0.44
   2   15   24    0     -80.94764971     -80.94770548   -0.00005578    0.00851528 0.00000000 0.00000000  0.87D-02      0.84
   3   17   15    0     -80.94770553     -80.94770553   -0.00000000    0.00001568 0.00000000 0.00000000  0.32D-04      1.23

 ** WVFN ****  CONVERGENCE REACHED, FINAL GRADIENT:  0.91D-10



 Results for state 1.2
 =====================

 !MCSCF STATE 1.2 Energy              -80.947705533812
 Nuclear energy                         0.00000000
 Kinetic energy                        62.86831491
 One electron energy                 -131.48447820
 Two electron energy                   50.53677267
 Virial ratio                           2.28757556

 !MCSCF STATE 1.2 Dipole moment         0.00000000     0.00000000     0.00000000
 Dipole moment /Debye                   0.00000000     0.00000000     0.00000000



 Results for state 1.3
 =====================

 !MCSCF STATE 1.3 Energy              -80.947705533812
 Nuclear energy                         0.00000000
 Kinetic energy                        62.86831491
 One electron energy                 -131.48447820
 Two electron energy                   50.53677267
 Virial ratio                           2.28757556

 !MCSCF STATE 1.3 Dipole moment         0.00000000     0.00000000     0.00000000
 Dipole moment /Debye                   0.00000000     0.00000000     0.00000000



 Results for state 1.5
 =====================

 !MCSCF STATE 1.5 Energy              -80.947705533812
 Nuclear energy                         0.00000000
 Kinetic energy                        62.86831491
 One electron energy                 -131.48447820
 Two electron energy                   50.53677267
 Virial ratio                           2.28757556

 !MCSCF STATE 1.5 Dipole moment         0.00000000     0.00000000     0.00000000
 Dipole moment /Debye                   0.00000000     0.00000000     0.00000000

 State-averaged charge density matrix saved on record  5202.2 (density set 1)


 NATURAL ORBITALS (state averaged)
 =================================

   Orb     Occ        Energy       Coefficients

                                   1 1s      1 1s      1 1s      1 1s      1 1s      1 1s      1 1s      1 1s      1 1s      1 1s   
                                   1 1s      1 1s      1 1s      1 1s      1 1s      1 1s      1 1s      1 1s      1 1s      1 1s   
                                   1 1s      1 3d0     1 3d2+    1 3d0     1 3d2+    1 3d0     1 3d2+    1 3d0     1 3d2+    1 3d0  
                                   1 3d2+    1 3d0     1 3d2+    1 3d0     1 3d2+    1 3d0     1 3d2+    1 3d0     1 3d2+    1 5g0  
                                   1 5g4+    1 5g2+    1 5g0     1 5g4+    1 5g2+    1 5g0     1 5g4+    1 5g2+    1 5g0     1 5g4+ 
                                   1 5g2+    1 5g0     1 5g4+    1 5g2+ 

   1.1  2.00000    -4.889079     0.000000 -0.000000  0.000001 -0.000003  0.000013 -0.000052  0.000185 -0.000611  0.001932 -0.006062
                                 0.021755 -0.072907 -0.138623  0.134298  0.380962  0.473533  0.166871  0.012519 -0.005180  0.002230
                                -0.000535  0.000000  0.000000  0.000000  0.000000  0.000000  0.000000  0.000000  0.000000  0.000000
                                 0.000000  0.000000  0.000000  0.000000  0.000000  0.000000  0.000000  0.000000  0.000000  0.000000
                                 0.000000  0.000000  0.000000  0.000000  0.000000  0.000000  0.000000  0.000000  0.000000  0.000000
                                 0.000000  0.000000  0.000000  0.000000

   2.1  2.00000    -0.394294    -0.000000  0.000000 -0.000000  0.000001 -0.000003  0.000012 -0.000041  0.000137 -0.000436  0.001390
                                -0.005173  0.018884  0.034723 -0.037353 -0.112954 -0.215730 -0.152802  0.338530  0.615131  0.230696
                                 0.001481  0.000000  0.000000  0.000000  0.000000  0.000000  0.000000  0.000000  0.000000  0.000000
                                 0.000000  0.000000  0.000000  0.000000  0.000000  0.000000  0.000000  0.000000  0.000000  0.000000
                                 0.000000  0.000000  0.000000  0.000000  0.000000  0.000000  0.000000  0.000000  0.000000  0.000000
                                 0.000000  0.000000  0.000000  0.000000

                                   1 2px     1 2px     1 2px     1 2px     1 2px     1 2px     1 2px     1 2px     1 2px     1 2px  
                                   1 2px     1 2px     1 2px     1 4f1+    1 4f3+    1 4f1+    1 4f3+    1 4f1+    1 4f3+    1 4f1+ 
                                   1 4f3+    1 4f1+    1 4f3+    1 4f1+    1 4f3+    1 4f1+    1 4f3+    1 6h1+    1 6h3+    1 6h5+ 
                                   1 6h1+    1 6h3+    1 6h5+    1 6h1+    1 6h3+    1 6h5+ 

   1.2  2.00000    -3.272429     0.000001 -0.000008 -0.000003  0.004403  0.115633  0.251188  0.342384  0.334743  0.140188  0.012490
                                -0.001560  0.000842 -0.000204  0.000000  0.000000  0.000000  0.000000  0.000000  0.000000  0.000000
                                 0.000000  0.000000  0.000000  0.000000  0.000000  0.000000  0.000000  0.000000  0.000000  0.000000
                                 0.000000  0.000000  0.000000  0.000000  0.000000  0.000000

   2.2  0.33333     0.001621     0.000000 -0.000004  0.000031 -0.000935 -0.020294 -0.046031 -0.063186 -0.075804  0.001638  0.286197
                                 0.545533  0.297408  0.006246  0.000000  0.000000  0.000000  0.000000  0.000000  0.000000  0.000000
                                 0.000000  0.000000  0.000000  0.000000  0.000000  0.000000  0.000000  0.000000  0.000000  0.000000
                                 0.000000  0.000000  0.000000  0.000000  0.000000  0.000000

                                   1 2py     1 2py     1 2py     1 2py     1 2py     1 2py     1 2py     1 2py     1 2py     1 2py  
                                   1 2py     1 2py     1 2py     1 4f1-    1 4f3-    1 4f1-    1 4f3-    1 4f1-    1 4f3-    1 4f1- 
                                   1 4f3-    1 4f1-    1 4f3-    1 4f1-    1 4f3-    1 4f1-    1 4f3-    1 6h1-    1 6h3-    1 6h5- 
                                   1 6h1-    1 6h3-    1 6h5-    1 6h1-    1 6h3-    1 6h5- 

   1.3  2.00000    -3.272429     0.000001 -0.000008 -0.000003  0.004403  0.115633  0.251188  0.342384  0.334743  0.140188  0.012490
                                -0.001560  0.000842 -0.000204  0.000000  0.000000  0.000000  0.000000  0.000000  0.000000  0.000000
                                 0.000000  0.000000  0.000000  0.000000  0.000000  0.000000  0.000000  0.000000  0.000000  0.000000
                                 0.000000  0.000000  0.000000  0.000000  0.000000  0.000000

   2.3  0.33333     0.001621     0.000000 -0.000004  0.000031 -0.000935 -0.020294 -0.046031 -0.063186 -0.075804  0.001638  0.286197
                                 0.545533  0.297408  0.006246  0.000000  0.000000  0.000000  0.000000  0.000000  0.000000  0.000000
                                 0.000000  0.000000  0.000000  0.000000  0.000000  0.000000  0.000000  0.000000  0.000000  0.000000
                                 0.000000  0.000000  0.000000  0.000000  0.000000  0.000000

                                   1 2pz     1 2pz     1 2pz     1 2pz     1 2pz     1 2pz     1 2pz     1 2pz     1 2pz     1 2pz  
                                   1 2pz     1 2pz     1 2pz     1 4f0     1 4f2+    1 4f0     1 4f2+    1 4f0     1 4f2+    1 4f0  
                                   1 4f2+    1 4f0     1 4f2+    1 4f0     1 4f2+    1 4f0     1 4f2+    1 6h2+    1 6h4+    1 6h0  
                                   1 6h2+    1 6h4+    1 6h0     1 6h2+    1 6h4+    1 6h0  

   1.5  2.00000    -3.272429     0.000001 -0.000008 -0.000003  0.004403  0.115633  0.251188  0.342384  0.334743  0.140188  0.012490
                                -0.001560  0.000842 -0.000204  0.000000  0.000000  0.000000  0.000000  0.000000  0.000000  0.000000
                                 0.000000  0.000000  0.000000  0.000000  0.000000  0.000000  0.000000  0.000000  0.000000  0.000000
                                 0.000000  0.000000  0.000000  0.000000  0.000000  0.000000

   2.5  0.33333     0.001621     0.000000 -0.000004  0.000031 -0.000935 -0.020294 -0.046031 -0.063186 -0.075804  0.001638  0.286197
                                 0.545533  0.297408  0.006246  0.000000  0.000000  0.000000  0.000000  0.000000  0.000000  0.000000
                                 0.000000  0.000000  0.000000  0.000000  0.000000  0.000000  0.000000  0.000000  0.000000  0.000000
                                 0.000000  0.000000  0.000000  0.000000  0.000000  0.000000

 Total charge:  -8.000000000000
 

 EXTRA SYMMETRY OF MOS IN SYMMETRY 1:   1 1 1 2 3 1 3 2 5 4   6 3 2 1 6 5 4 3 2 1   4 6 5 3 2 1 2 3 6 5   4 1 3 2 1 3 2 5 4 6
                                        1 3 2 1 1 1 1 1 1 1   1 1 1 1
 EXTRA SYMMETRY OF MOS IN SYMMETRY 2:   1 1 1 1 2 3 2 3 1 2   3 5 6 4 1 2 3 5 6 4   1 2 3 1 2 3 6 4 5 1   2 3 1 1 1 1
 EXTRA SYMMETRY OF MOS IN SYMMETRY 3:   1 1 1 1 2 3 3 2 1 2   3 5 6 4 1 2 3 6 5 4   1 3 2 1 2 3 4 5 6 1   2 3 1 1 1 1
 EXTRA SYMMETRY OF MOS IN SYMMETRY 4:   1 1 2 3 1 2 3 1 3 2   1 1 2 3 1 1 3 2 1
 EXTRA SYMMETRY OF MOS IN SYMMETRY 5:   1 1 1 1 3 2 3 2 1 3   2 6 4 5 1 3 2 6 5 4   1 2 3 1 2 3 6 4 5 1   3 2 1 1 1 1
 EXTRA SYMMETRY OF MOS IN SYMMETRY 6:   1 1 3 2 1 3 2 1 3 2   1 1 2 3 1 1 2 3 1
 EXTRA SYMMETRY OF MOS IN SYMMETRY 7:   1 1 3 2 1 3 2 1 3 2   1 1 2 3 1 1 2 3 1

 Natural orbital dump (state averaged) at molpro section  5202.2    (Orbital set 2)


 CI vector for state symmetry 1
 ==============================

 a 0 0           1.0000000

 TOTAL ENERGIES                       -80.94770553

 CI vector for state symmetry 2
 ==============================

 0 a 0           1.0000000

 TOTAL ENERGIES                       -80.94770553

 CI vector for state symmetry 3
 ==============================

 0 0 a           1.0000000

 TOTAL ENERGIES                       -80.94770553



 **********************************************************************************************************************************
 DATASETS  * FILE   NREC   LENGTH (MB)   RECORD NAMES
              1      21      141.75       500      610      700      900      950      970     1000      129      960     1100   
                                          VAR    BASINP    GEOM    SYMINP    ZMAT    AOBASIS   BASIS     P2S    ABASIS      S 
                                         1400     1410     1420     1200     1210     1080     1600     1650     1300     1700   
                                           T        V       ECP      H0       H01     AOSYM     SMH    MOLCAS    ERIS     OPER   
                                         1380   
                                         JKOP   

              2       6        7.06       200      700     1000      520     4202     5202   
                                        OPTIONS   GEOM     BASIS   MCVARS     RHF     MCSCF   

 PROGRAMS   *        TOTAL     MULTI       RHF       INT
 CPU TIMES  *        16.05      1.65      1.43     12.77
 REAL TIME  *        18.30 SEC
 DISK USED  *       573.27 MB      
 **********************************************************************************************************************************

1PROGRAM * RHF-SCF (OPEN SHELL)       Authors: W. Meyer, H.-J. Werner


 NUMBER OF ELECTRONS:       6+    5-    SPACE SYMMETRY=2    SPIN SYMMETRY: Doublet 
 CONVERGENCE THRESHOLDS:    1.00E-05 (Density)    1.00E-07 (Energy)
 MAX. NUMBER OF ITERATIONS:        0
 INTERPOLATION TYPE:            DIIS
 INTERPOLATION STEPS:              2 (START)      1 (STEP)
 LEVEL SHIFTS:                 -0.30 (CLOSED)  0.00 (OPEN) 


 Singly occupied orbitals:      2.2
 Molecular orbitals read from record     5202.2  Type=MCSCF/NATURAL  

 Molecular orbital dump at record        2101.2

 ITERATION    DDIFF          GRAD             ENERGY        2-EL.EN.            DIPOLE MOMENTS         DIIS   ORB.
    1      0.000D+00      0.000D+00       -80.94770553    101.073545    0.00000    0.00000    0.00000    0    start

 Final alpha occupancy:   2   2   1   0   1   0   0   0
 Final beta  occupancy:   2   1   1   0   1   0   0   0

 !RHF STATE 1.2 Energy                -80.947705533812
 Nuclear energy                         0.00000000
 One-electron energy                 -131.48447820
 Two-electron energy                   50.53677267
 Virial quotient                       -1.28757556
 !RHF STATE 1.2 Dipole moment           0.00000000     0.00000000     0.00000000
 Dipole moment /Debye                   0.00000000     0.00000000     0.00000000

 Orbital energies:

         1.1          2.1          3.1          4.1
     -4.889079    -0.394294     0.035341     0.089383

         1.2          2.2          3.2          4.2
     -3.272429     0.001621     0.033241     0.185937

         1.3          2.3          3.3
     -3.272429     0.001621     0.033241

         1.4          2.4
      0.089383     0.271760

         1.5          2.5          3.5
     -3.272429     0.001621     0.033241

         1.6          2.6
      0.089383     0.271760

         1.7          2.7
      0.089383     0.271760

         1.8          2.8
      0.204659     0.578444

 HOMO      2.2     0.001621 =       0.0441eV
 LUMO      2.3     0.001621 =       0.0441eV
 LUMO-HOMO         0.000000 =       0.0000eV


 **********************************************************************************************************************************
 DATASETS  * FILE   NREC   LENGTH (MB)   RECORD NAMES
              1      21      141.75       500      610      700      900      950      970     1000      129      960     1100   
                                          VAR    BASINP    GEOM    SYMINP    ZMAT    AOBASIS   BASIS     P2S    ABASIS      S 
                                         1400     1410     1420     1200     1210     1080     1600     1650     1300     1700   
                                           T        V       ECP      H0       H01     AOSYM     SMH    MOLCAS    ERIS     OPER   
                                         1380   
                                         JKOP   

              2       7        9.95       200      700     1000      520     4202     5202     2101   
                                        OPTIONS   GEOM     BASIS   MCVARS     RHF     MCSCF     RHF  

 PROGRAMS   *        TOTAL       RHF     MULTI       RHF       INT
 CPU TIMES  *        16.25      0.20      1.65      1.43     12.77
 REAL TIME  *        18.57 SEC
 DISK USED  *       573.27 MB      
 **********************************************************************************************************************************
 SETTING SCF(1)         =       -80.94770553  AU                              
 SETTING _CC_NORM_MAX   =         2.00000000                                  


1PROGRAM * CCSD (Unrestricted open-shell coupled cluster)     Authors: C. Hampel, H.-J. Werner, 1991, M. Deegan, P.J. Knowles, 1992


 Convergence thresholds:  THRVAR = 1.00D-08  THRDEN = 1.00D-06

 CCSD(T)     terms to be evaluated (factor= 1.000)


 Number of closed-shell orbitals:   5 (   2   1   1   0   1   0   0   0 )
 Number of active  orbitals:        1 (   0   1   0   0   0   0   0   0 )
 Number of external orbitals:     226 (  52  34  35  19  35  19  19  13 )

 Memory could be reduced to 19.67 Mwords without degradation in triples

 Number of N-1 electron functions:              11
 Number of N-2 electron functions:              55
 Number of singly external CSFs:               453
 Number of doubly external CSFs:            292354
 Total number of CSFs:                      292807

 Molecular orbitals read from record     2101.2  Type=RHF/CANONICAL (state 1.2)

 Integral transformation finished. Total CPU:   0.72 sec, npass=  1  Memory used:   3.03 MW

 Starting RMP2 calculation

 ITER.      SQ.NORM     CORR.ENERGY   TOTAL ENERGY   ENERGY CHANGE        DEN1      VAR(S)    VAR(P)  DIIS     TIME
   1      1.05118826    -0.35833216   -81.30603770    -0.35833216    -0.00064233  0.68D-04  0.46D-03  1  1     0.74
   2      1.05257980    -0.35903078   -81.30673632    -0.00069862    -0.00000809  0.12D-05  0.64D-05  2  2     0.76
   3      1.05275847    -0.35909995   -81.30680548    -0.00006916    -0.00000005  0.31D-08  0.42D-07  3  3     0.77
   4      1.05276052    -0.35909959   -81.30680512     0.00000036    -0.00000000  0.21D-10  0.21D-09  4  4     0.78

 Norm of t1 vector:      0.05480509      S-energy:    -0.00221400      T1 diagnostic:  0.00208654
 Norm of t2 vector:      0.22306260      P-energy:    -0.35688559
                                         Alpha-Beta:  -0.27877101
                                         Alpha-Alpha: -0.04099761
                                         Beta-Beta:   -0.03711697

 Spin contamination <S**2-Sz**2-Sz>     0.00790673
  Reference energy                    -80.947705533812
  RHF-RMP2 correlation energy          -0.359099587791
 !RHF-RMP2 energy                     -81.306805121604

 Starting UCCSD calculation

 ITER.      SQ.NORM     CORR.ENERGY   TOTAL ENERGY   ENERGY CHANGE        DEN1      VAR(S)    VAR(P)  DIIS     TIME
   1      1.06255598    -0.36599363   -81.31369917    -0.36599363    -0.00509724  0.74D-03  0.27D-02  1  1     1.72
   2      1.07429638    -0.37113224   -81.31883778    -0.00513861    -0.00071742  0.11D-03  0.51D-03  2  2     2.54
   3      1.08172486    -0.37316438   -81.32086991    -0.00203213    -0.00008327  0.16D-04  0.59D-04  3  3     3.37
   4      1.08504533    -0.37388426   -81.32158979    -0.00071988    -0.00000765  0.25D-05  0.48D-05  4  4     4.20
   5      1.08564762    -0.37395388   -81.32165941    -0.00006962    -0.00000073  0.38D-06  0.41D-06  5  5     5.02
   6      1.08578028    -0.37396799   -81.32167353    -0.00001411    -0.00000007  0.54D-07  0.32D-07  6  6     5.86
   7      1.08579415    -0.37396842   -81.32167396    -0.00000043    -0.00000001  0.97D-08  0.35D-08  6  1     6.70
   8      1.08579749    -0.37396871   -81.32167425    -0.00000029    -0.00000000  0.15D-08  0.49D-09  6  2     7.53

 Norm of t1 vector:      0.07824320      S-energy:    -0.00248336      T1 diagnostic:  0.01028980
                                                                       D1 diagnostic:  0.02635656
 Norm of t2 vector:      0.28226847      P-energy:    -0.37148535
                                         Alpha-Beta:  -0.29503689
                                         Alpha-Alpha: -0.04025264
                                         Beta-Beta:   -0.03619582

 Doubles amplitudes (print threshold =  0.500E-01):

         I         J         SYM. A    SYM. B    A         B      T(IJ, AB) [Alpha-Beta]

         2         2         3         3         1         1     -0.10741027
         2         2         5         5         1         1     -0.10741022
         4         2         1         2         5         1     -0.05696994
         4         2         4         3         2         1     -0.05668177
         4         2         6         5         2         1     -0.05668182

 Spin contamination <S**2-Sz**2-Sz>     0.00173351

 Memory could be reduced to 20.42 Mwords without degradation in triples
 

 RESULTS
 =======

  Reference energy                    -80.947705533812
  UCCSD singles energy                 -0.002483362096
  UCCSD pair energy                    -0.371485349347
  UCCSD correlation energy             -0.373968711443
  Triples (T) contribution             -0.005508604559
  Total correlation energy             -0.379477316003
 
  RHF-UCCSD energy                    -81.321674245256
  RHF-UCCSD[T] energy                 -81.327182352974
  RHF-UCCSD-T energy                  -81.327176457356
 !RHF-UCCSD(T) energy                 -81.327182849815

 Program statistics:

 Available memory in ccsd:               511999552
 Min. memory needed in ccsd:               1008885
 Max. memory used in ccsd:                 1341913
 Max. memory used in cckext:               1083213 ( 8 integral passes)
 Max. memory used in cckint:               3028737 ( 1 integral passes)



 **********************************************************************************************************************************
 DATASETS  * FILE   NREC   LENGTH (MB)   RECORD NAMES
              1      21      141.75       500      610      700      900      950      970     1000      129      960     1100   
                                          VAR    BASINP    GEOM    SYMINP    ZMAT    AOBASIS   BASIS     P2S    ABASIS      S 
                                         1400     1410     1420     1200     1210     1080     1600     1650     1300     1700   
                                           T        V       ECP      H0       H01     AOSYM     SMH    MOLCAS    ERIS     OPER   
                                         1380   
                                         JKOP   

              2       7        9.95       200      700     1000      520     4202     5202     2101   
                                        OPTIONS   GEOM     BASIS   MCVARS     RHF     MCSCF     RHF  

 PROGRAMS   *        TOTAL  UCCSD(T)       RHF     MULTI       RHF       INT
 CPU TIMES  *        32.98     16.72      0.20      1.65      1.43     12.77
 REAL TIME  *        36.50 SEC
 DISK USED  *       573.27 MB      
 **********************************************************************************************************************************
 SETTING CCSD(1)        =       -81.32718285  AU                              

 DO I                   =         2.00000000   

 Running procedure=IP1

1PROGRAM * RHF-SCF (CLOSED SHELL)       Authors: W. Meyer, H.-J. Werner


 NUMBER OF ELECTRONS:       5+    5-    SPACE SYMMETRY=1    SPIN SYMMETRY: Singlet 
 CONVERGENCE THRESHOLDS:    1.00E-05 (Density)    1.00E-07 (Energy)
 MAX. NUMBER OF ITERATIONS:       60
 INTERPOLATION TYPE:            DIIS
 INTERPOLATION STEPS:              2 (START)      1 (STEP)
 LEVEL SHIFTS:                  0.00 (CLOSED)  0.00 (OPEN) 



 Orbital guess generated from atomic densities. Full valence occupancy:    1   1   1   0   1   0   0   0


 Molecular orbital dump at record        2102.2

 ITERATION    DDIFF          GRAD             ENERGY        2-EL.EN.            DIPOLE MOMENTS         DIIS   ORB.
    1      0.000D+00      0.000D+00       -72.28678814    131.767131    0.00000    0.00000    0.00000    0    start
    2      0.000D+00      0.414D+00       -79.80159360     83.617815    0.00000    0.00000    0.00000    1    diag
    3      0.699D-01      0.129D+00       -80.73805223     95.550226    0.00000    0.00000    0.00000    2    diag
    4      0.117D-01      0.123D-01       -80.74578217     95.218337    0.00000    0.00000    0.00000    3    diag
    5      0.384D-02      0.120D-02       -80.74594442     95.179768    0.00000    0.00000    0.00000    4    diag
    6      0.126D-02      0.713D-04       -80.74594774     95.186469    0.00000    0.00000    0.00000    5    diag
    7      0.257D-03      0.780D-05       -80.74594780     95.187725    0.00000    0.00000    0.00000    6    diag
    8      0.285D-04      0.927D-06       -80.74594780     95.187797    0.00000    0.00000    0.00000    7    diag
    9      0.922D-06      0.491D-07       -80.74594780     95.187804    0.00000    0.00000    0.00000    0    orth

 Final occupancy:   2   1   1   0   1   0   0   0

 !RHF STATE 1.1 Energy                -80.745947796600
 Nuclear energy                         0.00000000
 One-electron energy                 -128.33984958
 Two-electron energy                   47.59390178
 Virial quotient                       -1.29144463
 !RHF STATE 1.1 Dipole moment           0.00000000     0.00000000     0.00000000
 Dipole moment /Debye                   0.00000000     0.00000000     0.00000000

 Orbital energies:

         1.1          2.1          3.1          4.1
     -5.194880    -0.653145    -0.096138    -0.049061

         1.2          2.2          3.2
     -3.575999    -0.194871    -0.065050

         1.3          2.3          3.3
     -3.575999    -0.194871    -0.065050

         1.4          2.4
     -0.049061     0.077399

         1.5          2.5          3.5
     -3.575999    -0.194871    -0.065050

         1.6          2.6
     -0.049061     0.077399

         1.7          2.7
     -0.049061     0.077399

         1.8          2.8
      0.056504     0.371467

 HOMO      2.1    -0.653145 =     -17.7730eV
 LUMO      2.2    -0.194871 =      -5.3027eV
 LUMO-HOMO         0.458274 =      12.4703eV


 **********************************************************************************************************************************
 DATASETS  * FILE   NREC   LENGTH (MB)   RECORD NAMES
              1      21      141.75       500      610      700      900      950      970     1000      129      960     1100   
                                          VAR    BASINP    GEOM    SYMINP    ZMAT    AOBASIS   BASIS     P2S    ABASIS      S 
                                         1400     1410     1420     1200     1210     1080     1600     1650     1300     1700   
                                           T        V       ECP      H0       H01     AOSYM     SMH    MOLCAS    ERIS     OPER   
                                         1380   
                                         JKOP   

              2       8       12.71       200      700     1000      520     4202     5202     2101     2102   
                                        OPTIONS   GEOM     BASIS   MCVARS     RHF     MCSCF     RHF      RHF  

 PROGRAMS   *        TOTAL       RHF  UCCSD(T)       RHF     MULTI       RHF       INT
 CPU TIMES  *        34.03      1.04     16.72      0.20      1.65      1.43     12.77
 REAL TIME  *        37.75 SEC
 DISK USED  *       573.27 MB      
 **********************************************************************************************************************************
 SETTING SCF(2)         =       -80.74594780  AU                              
 SETTING _CC_NORM_MAX   =         2.00000000                                  


1PROGRAM * CCSD (Unrestricted open-shell coupled cluster)     Authors: C. Hampel, H.-J. Werner, 1991, M. Deegan, P.J. Knowles, 1992


 Convergence thresholds:  THRVAR = 1.00D-08  THRDEN = 1.00D-06

 CCSD(T)     terms to be evaluated (factor= 1.000)


 Number of closed-shell orbitals:   5 (   2   1   1   0   1   0   0   0 )
 Number of external orbitals:     227 (  52  35  35  19  35  19  19  13 )

 Memory could be reduced to 18.43 Mwords without degradation in triples

 Number of N-1 electron functions:              10
 Number of N-2 electron functions:              45
 Number of singly external CSFs:               418
 Number of doubly external CSFs:            241680
 Total number of CSFs:                      242098

 Molecular orbitals read from record     2102.2  Type=RHF/CANONICAL (state 1.1)

 Integral transformation finished. Total CPU:   0.57 sec, npass=  1  Memory used:   2.59 MW

 Starting RMP2 calculation

 ITER.      SQ.NORM     CORR.ENERGY   TOTAL ENERGY   ENERGY CHANGE        DEN1      VAR(S)    VAR(P)  DIIS     TIME
   1      1.03901718    -0.34469444   -81.09064224    -0.34469444    -0.00055803  0.66D-15  0.41D-03  1  1     0.58
   2      1.04005381    -0.34529510   -81.09124289    -0.00060066    -0.00000522  0.92D-17  0.44D-05  2  2     0.59
   3      1.04017036    -0.34535011   -81.09129791    -0.00005501    -0.00000001  0.23D-19  0.45D-08  3  3     0.60
   4      1.04017148    -0.34535027   -81.09129807    -0.00000016    -0.00000000  0.18D-21  0.78D-11  4  4     0.61

 Norm of t1 vector:      0.00000019      S-energy:    -0.00000000      T1 diagnostic:  0.00000004
 Norm of t2 vector:      0.20042824      P-energy:    -0.34535027
                                         Alpha-Beta:  -0.27011019
                                         Alpha-Alpha: -0.03762004
                                         Beta-Beta:   -0.03762004

 Spin contamination <S**2-Sz**2-Sz>     0.00000000
  Reference energy                    -80.745947796600
  RHF-RMP2 correlation energy          -0.345350270995
 !RHF-RMP2 energy                     -81.091298067595

 Starting UCCSD calculation

 ITER.      SQ.NORM     CORR.ENERGY   TOTAL ENERGY   ENERGY CHANGE        DEN1      VAR(S)    VAR(P)  DIIS     TIME
   1      1.04659007    -0.35084111   -81.09678891    -0.35084111    -0.00430740  0.38D-03  0.21D-02  1  1     1.36
   2      1.05597335    -0.35528738   -81.10123518    -0.00444627    -0.00069325  0.50D-04  0.50D-03  2  2     2.09
   3      1.06285422    -0.35727794   -81.10322574    -0.00199056    -0.00007502  0.32D-05  0.52D-04  3  3     2.84
   4      1.06604277    -0.35803835   -81.10398615    -0.00076041    -0.00000243  0.23D-06  0.11D-05  4  4     3.56
   5      1.06632400    -0.35807697   -81.10402477    -0.00003862    -0.00000011  0.31D-07  0.43D-07  5  5     4.29
   6      1.06636117    -0.35808142   -81.10402921    -0.00000444    -0.00000001  0.28D-08  0.17D-08  6  6     5.03
   7      1.06636463    -0.35808143   -81.10402922    -0.00000001    -0.00000000  0.18D-09  0.14D-09  6  1     5.77

 Norm of t1 vector:      0.03485927      S-energy:    -0.00000001      T1 diagnostic:  0.00779477
                                                                       D1 diagnostic:  0.02415656
 Norm of t2 vector:      0.25524392      P-energy:    -0.35808142
                                         Alpha-Beta:  -0.28473648
                                         Alpha-Alpha: -0.03667247
                                         Beta-Beta:   -0.03667247

 Doubles amplitudes (print threshold =  0.500E-01):

         I         J         SYM. A    SYM. B    A         B      T(IJ, AB) [Alpha-Beta]

         2         2         2         2         1         1     -0.09943662
         2         2         3         3         1         1     -0.09943662
         2         2         5         5         1         1     -0.09943662

 Spin contamination <S**2-Sz**2-Sz>     0.00000000

 Memory could be reduced to 18.54 Mwords without degradation in triples
 

 RESULTS
 =======

  Reference energy                    -80.745947796600
  UCCSD singles energy                 -0.000000005184
  UCCSD pair energy                    -0.358081421165
  UCCSD correlation energy             -0.358081426349
  Triples (T) contribution             -0.004240055033
  Total correlation energy             -0.362321481382
 
  RHF-UCCSD energy                    -81.104029222949
  RHF-UCCSD[T] energy                 -81.108319734742
  RHF-UCCSD-T energy                  -81.108255081113
 !RHF-UCCSD(T) energy                 -81.108269277982

 Program statistics:

 Available memory in ccsd:               511999650
 Min. memory needed in ccsd:                863616
 Max. memory used in ccsd:                 1135928
 Max. memory used in cckext:                938704 ( 7 integral passes)
 Max. memory used in cckint:               2594594 ( 1 integral passes)



 **********************************************************************************************************************************
 DATASETS  * FILE   NREC   LENGTH (MB)   RECORD NAMES
              1      21      141.75       500      610      700      900      950      970     1000      129      960     1100   
                                          VAR    BASINP    GEOM    SYMINP    ZMAT    AOBASIS   BASIS     P2S    ABASIS      S 
                                         1400     1410     1420     1200     1210     1080     1600     1650     1300     1700   
                                           T        V       ECP      H0       H01     AOSYM     SMH    MOLCAS    ERIS     OPER   
                                         1380   
                                         JKOP   

              2       8       12.71       200      700     1000      520     4202     5202     2101     2102   
                                        OPTIONS   GEOM     BASIS   MCVARS     RHF     MCSCF     RHF      RHF  

 PROGRAMS   *        TOTAL  UCCSD(T)       RHF  UCCSD(T)       RHF     MULTI       RHF       INT
 CPU TIMES  *        46.68     12.66      1.04     16.72      0.20      1.65      1.43     12.77
 REAL TIME  *        51.32 SEC
 DISK USED  *       573.27 MB      
 **********************************************************************************************************************************
 SETTING CCSD(2)        =       -81.10826928  AU                              

 DO I                   =         3.00000000   

 Running procedure=IP2

1PROGRAM * RHF-SCF (OPEN SHELL)       Authors: W. Meyer, H.-J. Werner


 NUMBER OF ELECTRONS:       5+    4-    SPACE SYMMETRY=1    SPIN SYMMETRY: Doublet 
 CONVERGENCE THRESHOLDS:    1.00E-05 (Density)    1.00E-07 (Energy)
 MAX. NUMBER OF ITERATIONS:       60
 INTERPOLATION TYPE:            DIIS
 INTERPOLATION STEPS:              2 (START)      1 (STEP)
 LEVEL SHIFTS:                 -0.30 (CLOSED)  0.00 (OPEN) 



 Orbital guess generated from atomic densities. Full valence occupancy:    1   1   1   0   1   0   0   0


 Molecular orbital dump at record        2103.2

 ITERATION    DDIFF          GRAD             ENERGY        2-EL.EN.            DIPOLE MOMENTS         DIIS   ORB.
    1      0.000D+00      0.000D+00       -73.53643408    115.174465    0.00000    0.00000    0.00000    0    start
    2      0.000D+00      0.372D+00       -79.78776256     82.155366    0.00000    0.00000    0.00000    1    diag,B
    3      0.405D-01      0.836D-01       -80.09919218     87.524554    0.00000    0.00000    0.00000    2    diag,B
    4      0.368D-02      0.386D-02       -80.10109678     87.422943    0.00000    0.00000    0.00000    3    diag,B
    5      0.129D-02      0.493D-03       -80.10115151     87.394180    0.00000    0.00000    0.00000    4    diag,B
    6      0.392D-03      0.465D-04       -80.10115289     87.389457    0.00000    0.00000    0.00000    5    diag,B
    7      0.880D-04      0.495D-05       -80.10115291     87.388820    0.00000    0.00000    0.00000    6    fixocc
    8      0.104D-04      0.353D-06       -80.10115291     87.388763    0.00000    0.00000    0.00000    7    diag,B
    9      0.641D-06      0.133D-07       -80.10115291     87.388763    0.00000    0.00000    0.00000    0    orth

 Final alpha occupancy:   2   1   1   0   1   0   0   0
 Final beta  occupancy:   1   1   1   0   1   0   0   0

 !RHF STATE 1.1 Energy                -80.101152914775
 Nuclear energy                         0.00000000
 One-electron energy                 -123.79553423
 Two-electron energy                   43.69438132
 Virial quotient                       -1.28696410
 !RHF STATE 1.1 Dipole moment           0.00000000     0.00000000     0.00000000
 Dipole moment /Debye                   0.00000000     0.00000000     0.00000000

 Orbital energies:

         1.1          2.1          3.1          4.1
     -5.631494    -1.032661    -0.267729    -0.245904

         1.2          2.2          3.2
     -4.018520    -0.507440    -0.205859

         1.3          2.3          3.3
     -4.018520    -0.507440    -0.205859

         1.4          2.4
     -0.245904    -0.121211

         1.5          2.5          3.5
     -4.018520    -0.507440    -0.205859

         1.6          2.6
     -0.245904    -0.121211

         1.7          2.7
     -0.245904    -0.121211

         1.8          2.8
     -0.102844     0.143178

 HOMO      2.1    -1.032661 =     -28.1001eV
 LUMO      2.2    -0.507440 =     -13.8081eV
 LUMO-HOMO         0.525221 =      14.2920eV


 **********************************************************************************************************************************
 DATASETS  * FILE   NREC   LENGTH (MB)   RECORD NAMES
              1      21      141.75       500      610      700      900      950      970     1000      129      960     1100   
                                          VAR    BASINP    GEOM    SYMINP    ZMAT    AOBASIS   BASIS     P2S    ABASIS      S 
                                         1400     1410     1420     1200     1210     1080     1600     1650     1300     1700   
                                           T        V       ECP      H0       H01     AOSYM     SMH    MOLCAS    ERIS     OPER   
                                         1380   
                                         JKOP   

              2       9       15.60       200      700     1000      520     4202     5202     2101     2102     2103   
                                        OPTIONS   GEOM     BASIS   MCVARS     RHF     MCSCF     RHF      RHF      RHF  

 PROGRAMS   *        TOTAL       RHF  UCCSD(T)       RHF  UCCSD(T)       RHF     MULTI       RHF       INT
 CPU TIMES  *        47.81      1.13     12.66      1.04     16.72      0.20      1.65      1.43     12.77
 REAL TIME  *        52.65 SEC
 DISK USED  *       573.27 MB      
 **********************************************************************************************************************************
 SETTING SCF(3)         =       -80.10115291  AU                              
 SETTING _CC_NORM_MAX   =         2.00000000                                  


1PROGRAM * CCSD (Unrestricted open-shell coupled cluster)     Authors: C. Hampel, H.-J. Werner, 1991, M. Deegan, P.J. Knowles, 1992


 Convergence thresholds:  THRVAR = 1.00D-08  THRDEN = 1.00D-06

 CCSD(T)     terms to be evaluated (factor= 1.000)


 Number of closed-shell orbitals:   4 (   1   1   1   0   1   0   0   0 )
 Number of active  orbitals:        1 (   1   0   0   0   0   0   0   0 )
 Number of external orbitals:     227 (  52  35  35  19  35  19  19  13 )

 Memory could be reduced to 18.30 Mwords without degradation in triples

 Number of N-1 electron functions:               9
 Number of N-2 electron functions:              36
 Number of singly external CSFs:               369
 Number of doubly external CSFs:            193185
 Total number of CSFs:                      193554

 Molecular orbitals read from record     2103.2  Type=RHF/CANONICAL (state 1.1)

 Integral transformation finished. Total CPU:   0.56 sec, npass=  1  Memory used:   2.60 MW

 Starting RMP2 calculation

 ITER.      SQ.NORM     CORR.ENERGY   TOTAL ENERGY   ENERGY CHANGE        DEN1      VAR(S)    VAR(P)  DIIS     TIME
   1      1.01520600    -0.30694902   -80.40810193    -0.30694902    -0.00003706  0.15D-07  0.33D-05  1  1     0.57
   2      1.01521283    -0.30698659   -80.40813950    -0.00003757    -0.00000000  0.11D-10  0.53D-09  2  2     0.58
   3      1.01521289    -0.30698673   -80.40813965    -0.00000014    -0.00000000  0.16D-13  0.94D-13  3  3     0.60

 Norm of t1 vector:      0.00399950      S-energy:    -0.00008569      T1 diagnostic:  0.00000996
 Norm of t2 vector:      0.12327568      P-energy:    -0.30690104
                                         Alpha-Beta:  -0.23570891
                                         Alpha-Alpha: -0.03831260
                                         Beta-Beta:   -0.03287953

 Spin contamination <S**2-Sz**2-Sz>     0.00002066
  Reference energy                    -80.101152914775
  RHF-RMP2 correlation energy          -0.306986731003
 !RHF-RMP2 energy                     -80.408139645778

 Starting UCCSD calculation

 ITER.      SQ.NORM     CORR.ENERGY   TOTAL ENERGY   ENERGY CHANGE        DEN1      VAR(S)    VAR(P)  DIIS     TIME
   1      1.01592879    -0.31186153   -80.41301444    -0.31186153    -0.00127777  0.86D-04  0.57D-04  1  1     1.61
   2      1.01624825    -0.31316081   -80.41431373    -0.00129928    -0.00002886  0.86D-05  0.16D-05  2  2     2.38
   3      1.01632081    -0.31327223   -80.41442514    -0.00011142    -0.00000162  0.11D-05  0.28D-07  3  3     3.15
   4      1.01634260    -0.31329235   -80.41444526    -0.00002012    -0.00000007  0.54D-07  0.12D-08  4  4     3.92
   5      1.01634662    -0.31329436   -80.41444727    -0.00000201    -0.00000000  0.11D-08  0.54D-10  5  5     4.70
   6      1.01634714    -0.31329466   -80.41444758    -0.00000030    -0.00000000  0.20D-10  0.95D-12  6  6     5.46

 Norm of t1 vector:      0.01530729      S-energy:    -0.00009410      T1 diagnostic:  0.00344744
                                                                       D1 diagnostic:  0.00925506
 Norm of t2 vector:      0.12693633      P-energy:    -0.31320056
                                         Alpha-Beta:  -0.24322267
                                         Alpha-Alpha: -0.03790515
                                         Beta-Beta:   -0.03207274

 Spin contamination <S**2-Sz**2-Sz>     0.00005281

 Memory could be reduced to 18.65 Mwords without degradation in triples
 

 RESULTS
 =======

  Reference energy                    -80.101152914775
  UCCSD singles energy                 -0.000094099952
  UCCSD pair energy                    -0.313200561928
  UCCSD correlation energy             -0.313294661880
  Triples (T) contribution             -0.002554448171
  Total correlation energy             -0.315849110051
 
  RHF-UCCSD energy                    -80.414447576655
  RHF-UCCSD[T] energy                 -80.417023247691
  RHF-UCCSD-T energy                  -80.416991654032
 !RHF-UCCSD(T) energy                 -80.417002024826

 Program statistics:

 Available memory in ccsd:               511999650
 Min. memory needed in ccsd:                740234
 Max. memory used in ccsd:                  950042
 Max. memory used in cckext:                802404 ( 6 integral passes)
 Max. memory used in cckint:               2598592 ( 1 integral passes)



 **********************************************************************************************************************************
 DATASETS  * FILE   NREC   LENGTH (MB)   RECORD NAMES
              1      21      141.75       500      610      700      900      950      970     1000      129      960     1100   
                                          VAR    BASINP    GEOM    SYMINP    ZMAT    AOBASIS   BASIS     P2S    ABASIS      S 
                                         1400     1410     1420     1200     1210     1080     1600     1650     1300     1700   
                                           T        V       ECP      H0       H01     AOSYM     SMH    MOLCAS    ERIS     OPER   
                                         1380   
                                         JKOP   

              2       9       15.60       200      700     1000      520     4202     5202     2101     2102     2103   
                                        OPTIONS   GEOM     BASIS   MCVARS     RHF     MCSCF     RHF      RHF      RHF  

 PROGRAMS   *        TOTAL  UCCSD(T)       RHF  UCCSD(T)       RHF  UCCSD(T)       RHF     MULTI       RHF       INT
 CPU TIMES  *        58.16     10.35      1.13     12.66      1.04     16.72      0.20      1.65      1.43     12.77
 REAL TIME  *        63.78 SEC
 DISK USED  *       573.27 MB      
 **********************************************************************************************************************************
 SETTING CCSD(3)        =       -80.41700202  AU                              

 DO I                   =         4.00000000   

 Running procedure=IP3

1PROGRAM * RHF-SCF (CLOSED SHELL)       Authors: W. Meyer, H.-J. Werner


 NUMBER OF ELECTRONS:       4+    4-    SPACE SYMMETRY=1    SPIN SYMMETRY: Singlet 
 CONVERGENCE THRESHOLDS:    1.00E-05 (Density)    1.00E-07 (Energy)
 MAX. NUMBER OF ITERATIONS:       60
 INTERPOLATION TYPE:            DIIS
 INTERPOLATION STEPS:              2 (START)      1 (STEP)
 LEVEL SHIFTS:                  0.00 (CLOSED)  0.00 (OPEN) 



 Orbital guess generated from atomic densities. Full valence occupancy:    1   1   1   0   1   0   0   0


 Molecular orbital dump at record        2104.2

 ITERATION    DDIFF          GRAD             ENERGY        2-EL.EN.            DIPOLE MOMENTS         DIIS   ORB.
    1      0.000D+00      0.000D+00       -74.03974292    100.074474    0.00000    0.00000    0.00000    0    start
    2      0.000D+00      0.421D+00       -78.82006199     74.623599    0.00000    0.00000    0.00000    1    diag
    3      0.175D-01      0.894D-01       -79.06867192     79.421506    0.00000    0.00000    0.00000    2    diag
    4      0.265D-02      0.412D-02       -79.06914376     79.264455    0.00000    0.00000    0.00000    3    diag
    5      0.254D-03      0.159D-03       -79.06914520     79.266538    0.00000    0.00000    0.00000    4    diag
    6      0.182D-04      0.591D-05       -79.06914520     79.266548    0.00000    0.00000    0.00000    5    diag
    7      0.508D-06      0.222D-06       -79.06914520     79.266542    0.00000    0.00000    0.00000    0    orth

 Final occupancy:   1   1   1   0   1   0   0   0

 !RHF STATE 1.1 Energy                -79.069145204028
 Nuclear energy                         0.00000000
 One-electron energy                 -118.70241632
 Two-electron energy                   39.63327111
 Virial quotient                       -1.27975189
 !RHF STATE 1.1 Dipole moment           0.00000000     0.00000000     0.00000000
 Dipole moment /Debye                   0.00000000     0.00000000     0.00000000

 Orbital energies:

         1.1          2.1          3.1
     -6.132465    -1.031393    -0.511775

         1.2          2.2          3.2
     -4.528491    -0.790165    -0.386573

         1.3          2.3          3.3
     -4.528491    -0.790165    -0.386573

         1.4          2.4
     -0.511775    -0.286883

         1.5          2.5          3.5
     -4.528491    -0.790165    -0.386573

         1.6          2.6
     -0.511775    -0.286883

         1.7          2.7
     -0.511775    -0.286883

         1.8          2.8
     -0.279476    -0.078429

 HOMO      1.2    -4.528491 =    -123.2265eV
 LUMO      2.1    -1.031393 =     -28.0656eV
 LUMO-HOMO         3.497098 =      95.1609eV


 **********************************************************************************************************************************
 DATASETS  * FILE   NREC   LENGTH (MB)   RECORD NAMES
              1      21      141.75       500      610      700      900      950      970     1000      129      960     1100   
                                          VAR    BASINP    GEOM    SYMINP    ZMAT    AOBASIS   BASIS     P2S    ABASIS      S 
                                         1400     1410     1420     1200     1210     1080     1600     1650     1300     1700   
                                           T        V       ECP      H0       H01     AOSYM     SMH    MOLCAS    ERIS     OPER   
                                         1380   
                                         JKOP   

              2      10       18.35       200      700     1000      520     4202     5202     2101     2102     2103     2104   
                                        OPTIONS   GEOM     BASIS   MCVARS     RHF     MCSCF     RHF      RHF      RHF      RHF  

 PROGRAMS   *        TOTAL       RHF  UCCSD(T)       RHF  UCCSD(T)       RHF  UCCSD(T)       RHF     MULTI       RHF       INT
 CPU TIMES  *        59.02      0.86     10.35      1.13     12.66      1.04     16.72      0.20      1.65      1.43     12.77
 REAL TIME  *        64.80 SEC
 DISK USED  *       573.27 MB      
 **********************************************************************************************************************************
 SETTING SCF(4)         =       -79.06914520  AU                              
 SETTING _CC_NORM_MAX   =         2.00000000                                  


1PROGRAM * CCSD (Unrestricted open-shell coupled cluster)     Authors: C. Hampel, H.-J. Werner, 1991, M. Deegan, P.J. Knowles, 1992


 Convergence thresholds:  THRVAR = 1.00D-08  THRDEN = 1.00D-06

 CCSD(T)     terms to be evaluated (factor= 1.000)


 Number of closed-shell orbitals:   4 (   1   1   1   0   1   0   0   0 )
 Number of external orbitals:     228 (  53  35  35  19  35  19  19  13 )

 Memory could be reduced to 16.60 Mwords without degradation in triples

 Number of N-1 electron functions:               8
 Number of N-2 electron functions:              28
 Number of singly external CSFs:               316
 Number of doubly external CSFs:            150112
 Total number of CSFs:                      150428

 Molecular orbitals read from record     2104.2  Type=RHF/CANONICAL (state 1.1)

 Integral transformation finished. Total CPU:   0.52 sec, npass=  1  Memory used:   2.25 MW

 Starting RMP2 calculation

 ITER.      SQ.NORM     CORR.ENERGY   TOTAL ENERGY   ENERGY CHANGE        DEN1      VAR(S)    VAR(P)  DIIS     TIME
   1      1.01358134    -0.29475954   -79.36390475    -0.29475954    -0.00003215  0.37D-17  0.23D-05  1  1     0.54
   2      1.01358618    -0.29479209   -79.36393729    -0.00003254    -0.00000000  0.11D-20  0.11D-09  2  2     0.54
   3      1.01358620    -0.29479217   -79.36393737    -0.00000008    -0.00000000  0.33D-24  0.49D-14  3  3     0.55

 Norm of t1 vector:      0.00000008      S-energy:    -0.00000000      T1 diagnostic:  0.00000002
 Norm of t2 vector:      0.11655985      P-energy:    -0.29479217
                                         Alpha-Beta:  -0.22920481
                                         Alpha-Alpha: -0.03279368
                                         Beta-Beta:   -0.03279368

 Spin contamination <S**2-Sz**2-Sz>     0.00000000
  Reference energy                    -79.069145204028
  RHF-RMP2 correlation energy          -0.294792165855
 !RHF-RMP2 energy                     -79.363937369883

 Starting UCCSD calculation

 ITER.      SQ.NORM     CORR.ENERGY   TOTAL ENERGY   ENERGY CHANGE        DEN1      VAR(S)    VAR(P)  DIIS     TIME
   1      1.01411873    -0.29970958   -79.36885478    -0.29970958    -0.00104652  0.17D-04  0.41D-04  1  1     1.25
   2      1.01427961    -0.30077551   -79.36992071    -0.00106593    -0.00001162  0.32D-06  0.68D-06  2  2     1.93
   3      1.01429600    -0.30083199   -79.36997720    -0.00005648    -0.00000019  0.10D-07  0.83D-08  3  3     2.62
   4      1.01429783    -0.30083599   -79.36998119    -0.00000400    -0.00000000  0.63D-10  0.95D-10  4  4     3.31
   5      1.01429792    -0.30083615   -79.36998136    -0.00000017    -0.00000000  0.12D-11  0.18D-11  5  5     4.00

 Norm of t1 vector:      0.00499978      S-energy:    -0.00000000      T1 diagnostic:  0.00124995
                                                                       D1 diagnostic:  0.00197272
 Norm of t2 vector:      0.11946935      P-energy:    -0.30083615
                                         Alpha-Beta:  -0.23663145
                                         Alpha-Alpha: -0.03210235
                                         Beta-Beta:   -0.03210235

 Spin contamination <S**2-Sz**2-Sz>     0.00000000

 Memory could be reduced to 16.74 Mwords without degradation in triples
 

 RESULTS
 =======

  Reference energy                    -79.069145204028
  UCCSD singles energy                 -0.000000001796
  UCCSD pair energy                    -0.300836152700
  UCCSD correlation energy             -0.300836154496
  Triples (T) contribution             -0.002175155115
  Total correlation energy             -0.303011309611
 
  RHF-UCCSD energy                    -79.369981358524
  RHF-UCCSD[T] energy                 -79.372170925278
  RHF-UCCSD-T energy                  -79.372149249426
 !RHF-UCCSD(T) energy                 -79.372156513639

 Program statistics:

 Available memory in ccsd:               511999732
 Min. memory needed in ccsd:                614582
 Max. memory used in ccsd:                  774774
 Max. memory used in cckext:                680666 ( 5 integral passes)
 Max. memory used in cckint:               2253324 ( 1 integral passes)



 **********************************************************************************************************************************
 DATASETS  * FILE   NREC   LENGTH (MB)   RECORD NAMES
              1      21      141.75       500      610      700      900      950      970     1000      129      960     1100   
                                          VAR    BASINP    GEOM    SYMINP    ZMAT    AOBASIS   BASIS     P2S    ABASIS      S 
                                         1400     1410     1420     1200     1210     1080     1600     1650     1300     1700   
                                           T        V       ECP      H0       H01     AOSYM     SMH    MOLCAS    ERIS     OPER   
                                         1380   
                                         JKOP   

              2      10       18.35       200      700     1000      520     4202     5202     2101     2102     2103     2104   
                                        OPTIONS   GEOM     BASIS   MCVARS     RHF     MCSCF     RHF      RHF      RHF      RHF  

 PROGRAMS   *        TOTAL  UCCSD(T)       RHF  UCCSD(T)       RHF  UCCSD(T)       RHF  UCCSD(T)       RHF     MULTI       RHF
 CPU TIMES  *        66.40      7.38      0.86     10.35      1.13     12.66      1.04     16.72      0.20      1.65      1.43
 REAL TIME  *        72.80 SEC
 DISK USED  *       573.27 MB      
 **********************************************************************************************************************************
 SETTING CCSD(4)        =       -79.37215651  AU                              

 DO I                   =         5.00000000   

 Running procedure=EA

1PROGRAM * RHF-SCF (OPEN SHELL)       Authors: W. Meyer, H.-J. Werner


 NUMBER OF ELECTRONS:       7+    5-    SPACE SYMMETRY=4    SPIN SYMMETRY: Triplet 
 CONVERGENCE THRESHOLDS:    1.00E-05 (Density)    1.00E-07 (Energy)
 MAX. NUMBER OF ITERATIONS:       60
 INTERPOLATION TYPE:            DIIS
 INTERPOLATION STEPS:              2 (START)      1 (STEP)
 LEVEL SHIFTS:                 -0.30 (CLOSED)  0.00 (OPEN) 


 Singly occupied orbitals:      2.2       2.3
 Orbital guess generated from atomic densities. Full valence occupancy:    1   1   1   0   1   0   0   0


 Molecular orbital dump at record        4202.2

 ITERATION    DDIFF          GRAD             ENERGY        2-EL.EN.            DIPOLE MOMENTS         DIIS   ORB.
    1      0.000D+00      0.000D+00       -66.80470343    169.447293    0.00000    0.00000    0.00000    0    start
    2      0.000D+00      0.376D+00       -76.22620338     68.441978    0.00000    0.00000    0.00000    1    diag,B
    3      0.296D+00      0.203D+00       -80.69957466    113.605998    0.00000    0.00000    0.00000    2    diag,B
    4      0.282D+00      0.288D-01       -80.93041696    107.030177    0.00000    0.00000    0.00000    3    diag,B
    5      0.123D-01      0.459D-02       -80.94736701    105.279534    0.00000    0.00000    0.00000    4    diag,B
    6      0.697D-02      0.117D-02       -80.94879723    105.188413    0.00000    0.00000    0.00000    5    diag,B
    7      0.428D-02      0.477D-03       -80.94922838    105.239013    0.00000    0.00000    0.00000    6    fixocc
    8      0.316D-02      0.133D-03       -80.94925786    105.242371    0.00000    0.00000    0.00000    7    diag,B
    9      0.588D-03      0.386D-04       -80.94926060    105.243086    0.00000    0.00000    0.00000    8    diag,B
   10      0.903D-04      0.168D-04       -80.94926141    105.241685    0.00000    0.00000    0.00000    9    orth
   11      0.720D-04      0.385D-05       -80.94926146    105.240183    0.00000    0.00000    0.00000    9    diag,B
   12      0.133D-04      0.107D-05       -80.94926147    105.239748    0.00000    0.00000    0.00000    9    diag,B
   13      0.341D-05      0.138D-06       -80.94926147    105.239748    0.00000    0.00000    0.00000    0    orth

 Final alpha occupancy:   2   2   2   0   1   0   0   0
 Final beta  occupancy:   2   1   1   0   1   0   0   0

 !RHF STATE 1.4 Energy                -80.949261466422
 Nuclear energy                         0.00000000
 One-electron energy                 -133.56913563
 Two-electron energy                   52.61987416
 Virial quotient                       -1.28611945
 !RHF STATE 1.4 Dipole moment           0.00000000     0.00000000     0.00000000
 Dipole moment /Debye                   0.00000000     0.00000000     0.00000000

 Orbital energies:

         1.1          2.1          3.1          4.1
     -4.695376    -0.209751     0.137834     0.198796

         1.2          2.2          3.2          4.2
     -3.079488    -0.020031     0.124977     0.322608

         1.3          2.3          3.3          4.3
     -3.079488    -0.020031     0.124977     0.322608

         1.4          2.4
      0.198796     0.410207

         1.5          2.5          3.5
     -3.080559     0.110840     0.178227

         1.6          2.6
      0.200272     0.415357

         1.7          2.7
      0.200272     0.415357

         1.8          2.8
      0.332157     0.737091

 HOMO      2.2    -0.020031 =      -0.5451eV
 LUMO      2.5     0.110840 =       3.0161eV
 LUMO-HOMO         0.130871 =       3.5612eV


 **********************************************************************************************************************************
 DATASETS  * FILE   NREC   LENGTH (MB)   RECORD NAMES
              1      21      141.75       500      610      700      900      950      970     1000      129      960     1100   
                                          VAR    BASINP    GEOM    SYMINP    ZMAT    AOBASIS   BASIS     P2S    ABASIS      S 
                                         1400     1410     1420     1200     1210     1080     1600     1650     1300     1700   
                                           T        V       ECP      H0       H01     AOSYM     SMH    MOLCAS    ERIS     OPER   
                                         1380   
                                         JKOP   

              2      10       18.35       200      700     1000      520     4202     5202     2101     2102     2103     2104   
                                        OPTIONS   GEOM     BASIS   MCVARS     RHF     MCSCF     RHF      RHF      RHF      RHF  

 PROGRAMS   *        TOTAL       RHF  UCCSD(T)       RHF  UCCSD(T)       RHF  UCCSD(T)       RHF  UCCSD(T)       RHF     MULTI
 CPU TIMES  *        68.57      2.17      7.38      0.86     10.35      1.13     12.66      1.04     16.72      0.20      1.65
 REAL TIME  *        75.27 SEC
 DISK USED  *       573.27 MB      
 **********************************************************************************************************************************

1PROGRAM * MULTI (Direct Multiconfiguration SCF)       Authors: P.J. Knowles, H.-J. Werner (1984)     S.T. Elbert (1988)


 Number of closed-shell orbitals:   5 (   2   1   1   0   1   0   0   0 )
 Number of active  orbitals:        3 (   0   1   1   0   1   0   0   0 )
 Number of external orbitals:     224 (  52  34  34  19  34  19  19  13 )

 State symmetry 1

 Number of electrons:     2    Spin symmetry=Triplet   Space symmetry=4
 Number of states:        1
 Number of CSFs:          1   (1 determinants, 3 intermediate states)

 State symmetry 2

 Number of electrons:     2    Spin symmetry=Triplet   Space symmetry=6
 Number of states:        1
 Number of CSFs:          1   (1 determinants, 3 intermediate states)

 State symmetry 3

 Number of electrons:     2    Spin symmetry=Triplet   Space symmetry=7
 Number of states:        1
 Number of CSFs:          1   (1 determinants, 3 intermediate states)

 Molecular orbitals read from record     4202.2  Type=RHF/CANONICAL (state 1.4)
 *** IN SYMMETRY 1 ORBITAL  1 SYMMETRY CONTAMINATION OF 0.686D-03 HAS BEEN REMOVED
 *** IN SYMMETRY 1 ORBITAL  2 SYMMETRY CONTAMINATION OF 0.957D-02 HAS BEEN REMOVED

 EXTRA SYMMETRY OF MOS IN SYMMETRY 1:   1 1 1 3 2 1 3 2 4 6   5 2 3 1 4 6 5 2 3 1   4 6 5 2 3 1 2 3 4 6   5 1 2 3 1 2 3 4 6 5
                                        1 2 3 1 1 1 1 1 1 1   1 1 1 1
 *** IN SYMMETRY 2 ORBITAL  1 SYMMETRY CONTAMINATION OF 0.110D-02 HAS BEEN REMOVED
 *** IN SYMMETRY 2 ORBITAL  2 SYMMETRY CONTAMINATION OF 0.290D-03 HAS BEEN REMOVED
 EXTRA SYMMETRY OF MOS IN SYMMETRY 2:   1 1 1 1 2 3 2 3 1 2   4 3 5 6 1 2 3 4 5 6   1 2 3 1 2 3 4 5 6 1   2 3 1 1 1 1
 *** IN SYMMETRY 3 ORBITAL  1 SYMMETRY CONTAMINATION OF 0.110D-02 HAS BEEN REMOVED
 *** IN SYMMETRY 3 ORBITAL  2 SYMMETRY CONTAMINATION OF 0.290D-03 HAS BEEN REMOVED
 EXTRA SYMMETRY OF MOS IN SYMMETRY 3:   1 1 1 1 2 3 2 3 1 2   4 3 5 6 1 2 3 4 5 6   1 2 3 1 2 3 4 5 6 1   2 3 1 1 1 1
 EXTRA SYMMETRY OF MOS IN SYMMETRY 4:   1 1 2 3 1 2 3 1 2 3   1 1 2 3 1 1 2 3 1
 *** IN SYMMETRY 5 ORBITAL  1 SYMMETRY CONTAMINATION OF 0.135D-02 HAS BEEN REMOVED
 *** IN SYMMETRY 5 ORBITAL  2 SYMMETRY CONTAMINATION OF 0.694D-02 HAS BEEN REMOVED
 EXTRA SYMMETRY OF MOS IN SYMMETRY 5:   1 1 1 2 3 1 2 3 1 2   3 6 4 5 1 2 3 6 4 5   1 2 3 1 2 3 6 4 5 1   2 3 1 1 1 1
 EXTRA SYMMETRY OF MOS IN SYMMETRY 6:   1 1 2 3 1 2 3 1 2 3   1 1 2 3 1 1 2 3 1
 EXTRA SYMMETRY OF MOS IN SYMMETRY 7:   1 1 2 3 1 2 3 1 2 3   1 1 2 3 1 1 2 3 1
 EXTRA SYMMETRY OF MOS IN SYMMETRY 8:   1 1 1 3 2 1 3 2 1 1   3 2 1

 Wavefunction dump at record             5202.2

 Convergence thresholds  0.10E-01 (gradient)  0.10E-05 (energy)  0.10E-02 (step length)

 Weight factors for state symmetry  1:    0.33333
 Weight factors for state symmetry  2:    0.33333
 Weight factors for state symmetry  3:    0.33333

 Number of orbital rotations:      311   (     3 Core/Active    206 Core/Virtual   0 Active/Active    102 Active/Virtual)
 Total number of variables:        314


 ITER. MIC  NCI  NEG     ENERGY(VAR)     ENERGY(PROJ)   ENERGY CHANGE     GRAD(0)  GRAD(ORB)   GRAD(CI)     STEP       TIME

   1   35   21    0     -80.92376815     -80.95156272   -0.02779457    0.05397056 0.00000000 0.00000000  0.85D+00      0.52
   2   18   24    0     -80.94723955     -80.94909358   -0.00185403    0.03295666 0.00000000 0.00000000  0.13D+00      1.03
   3   19   24    0     -80.94914035     -80.94914366   -0.00000331    0.00116727 0.00000000 0.00000000  0.68D-02      1.54
   4   19   12    0     -80.94914367     -80.94914367   -0.00000000    0.00000218 0.00000000 0.00000000  0.14D-04      2.04

 ** WVFN ****  CONVERGENCE REACHED, FINAL GRADIENT:  0.83D-07



 Results for state 1.4
 =====================

 !MCSCF STATE 1.4 Energy              -80.949143667488
 Nuclear energy                         0.00000000
 Kinetic energy                        62.94049509
 One electron energy                 -133.56827159
 Two electron energy                   52.61912792
 Virial ratio                           2.28612181

 !MCSCF STATE 1.4 Dipole moment         0.00000000     0.00000000     0.00000000
 Dipole moment /Debye                   0.00000000     0.00000000     0.00000000



 Results for state 1.6
 =====================

 !MCSCF STATE 1.6 Energy              -80.949143667401
 Nuclear energy                         0.00000000
 Kinetic energy                        62.94049513
 One electron energy                 -133.56827160
 Two electron energy                   52.61912794
 Virial ratio                           2.28612181

 !MCSCF STATE 1.6 Dipole moment         0.00000000     0.00000000     0.00000000
 Dipole moment /Debye                   0.00000000     0.00000000     0.00000000



 Results for state 1.7
 =====================

 !MCSCF STATE 1.7 Energy              -80.949143667401
[...]
                                 0.000000  0.000000  0.000000  0.000000  0.000000  0.000000  0.000000  0.000000  0.000000  0.000000
                                 0.000000  0.000000  0.000000  0.000000

   2.1  2.00000    -0.209786    -0.000000  0.000000 -0.000000  0.000001 -0.000003  0.000011 -0.000040  0.000132 -0.000419  0.001334
                                -0.004960  0.018087  0.033184 -0.035616 -0.108152 -0.205291 -0.145938  0.317871  0.540811  0.292184
                                 0.045457  0.000000  0.000000  0.000000  0.000000  0.000000  0.000000  0.000000  0.000000  0.000000
                                 0.000000  0.000000  0.000000  0.000000  0.000000  0.000000  0.000000  0.000000  0.000000  0.000000
                                 0.000000  0.000000  0.000000  0.000000  0.000000  0.000000  0.000000  0.000000  0.000000  0.000000
                                 0.000000  0.000000  0.000000  0.000000

                                   1 2px     1 2px     1 2px     1 2px     1 2px     1 2px     1 2px     1 2px     1 2px     1 2px  
                                   1 2px     1 2px     1 2px     1 4f1+    1 4f3+    1 4f1+    1 4f3+    1 4f1+    1 4f3+    1 4f1+ 
                                   1 4f3+    1 4f1+    1 4f3+    1 4f1+    1 4f3+    1 4f1+    1 4f3+    1 6h1+    1 6h3+    1 6h5+ 
                                   1 6h1+    1 6h3+    1 6h5+    1 6h1+    1 6h3+    1 6h5+ 

   1.2  2.00000    -3.079939     0.000001 -0.000008 -0.000003  0.004405  0.115650  0.251246  0.342399  0.334946  0.139932  0.012223
                                -0.001541  0.000837 -0.000179  0.000000  0.000000  0.000000  0.000000  0.000000  0.000000  0.000000
                                 0.000000  0.000000  0.000000  0.000000  0.000000  0.000000  0.000000  0.000000  0.000000  0.000000
                                 0.000000  0.000000  0.000000  0.000000  0.000000  0.000000

   2.2  0.66667     0.122339     0.000000 -0.000003  0.000022 -0.000714 -0.015800 -0.035624 -0.049294 -0.057977 -0.001205  0.210328
                                 0.386734  0.393977  0.239811  0.000000  0.000000  0.000000  0.000000  0.000000  0.000000  0.000000
                                 0.000000  0.000000  0.000000  0.000000  0.000000  0.000000  0.000000  0.000000  0.000000  0.000000
                                 0.000000  0.000000  0.000000  0.000000  0.000000  0.000000

                                   1 2py     1 2py     1 2py     1 2py     1 2py     1 2py     1 2py     1 2py     1 2py     1 2py  
                                   1 2py     1 2py     1 2py     1 4f1-    1 4f3-    1 4f1-    1 4f3-    1 4f1-    1 4f3-    1 4f1- 
                                   1 4f3-    1 4f1-    1 4f3-    1 4f1-    1 4f3-    1 4f1-    1 4f3-    1 6h1-    1 6h3-    1 6h5- 
                                   1 6h1-    1 6h3-    1 6h5-    1 6h1-    1 6h3-    1 6h5- 

   1.3  2.00000    -3.079939     0.000001 -0.000008 -0.000003  0.004405  0.115650  0.251246  0.342399  0.334946  0.139932  0.012223
                                -0.001541  0.000837 -0.000179  0.000000  0.000000  0.000000  0.000000  0.000000  0.000000  0.000000
                                 0.000000  0.000000  0.000000  0.000000  0.000000  0.000000  0.000000  0.000000  0.000000  0.000000
                                 0.000000  0.000000  0.000000  0.000000  0.000000  0.000000

   2.3  0.66667     0.122339     0.000000 -0.000003  0.000022 -0.000714 -0.015800 -0.035624 -0.049294 -0.057977 -0.001205  0.210328
                                 0.386734  0.393977  0.239811  0.000000  0.000000  0.000000  0.000000  0.000000  0.000000  0.000000
                                 0.000000  0.000000  0.000000  0.000000  0.000000  0.000000  0.000000  0.000000  0.000000  0.000000
                                 0.000000  0.000000  0.000000  0.000000  0.000000  0.000000

                                   1 2pz     1 2pz     1 2pz     1 2pz     1 2pz     1 2pz     1 2pz     1 2pz     1 2pz     1 2pz  
                                   1 2pz     1 2pz     1 2pz     1 4f0     1 4f2+    1 4f0     1 4f2+    1 4f0     1 4f2+    1 4f0  
                                   1 4f2+    1 4f0     1 4f2+    1 4f0     1 4f2+    1 4f0     1 4f2+    1 6h2+    1 6h4+    1 6h0  
                                   1 6h2+    1 6h4+    1 6h0     1 6h2+    1 6h4+    1 6h0  

   1.5  2.00000    -3.079939     0.000001 -0.000008 -0.000003  0.004405  0.115650  0.251246  0.342399  0.334946  0.139932  0.012223
                                -0.001541  0.000838 -0.000179  0.000000  0.000000  0.000000  0.000000  0.000000  0.000000  0.000000
                                 0.000000  0.000000  0.000000  0.000000  0.000000  0.000000  0.000000  0.000000  0.000000  0.000000
                                 0.000000  0.000000  0.000000  0.000000  0.000000  0.000000

   2.5  0.66667     0.122339     0.000000 -0.000003  0.000022 -0.000714 -0.015800 -0.035624 -0.049294 -0.057977 -0.001205  0.210328
                                 0.386734  0.393977  0.239811  0.000000  0.000000  0.000000  0.000000  0.000000  0.000000  0.000000
                                 0.000000  0.000000  0.000000  0.000000  0.000000  0.000000  0.000000  0.000000  0.000000  0.000000
                                 0.000000  0.000000  0.000000  0.000000  0.000000  0.000000

 Total charge:  -9.000000000000
 

 EXTRA SYMMETRY OF MOS IN SYMMETRY 1:   1 1 1 2 3 1 3 2 5 4   6 2 3 1 4 6 5 3 2 1   5 4 6 2 3 1 2 3 4 5   6 1 2 3 1 2 3 4 6 5
                                        1 2 3 1 1 1 1 1 1 1   1 1 1 1
 EXTRA SYMMETRY OF MOS IN SYMMETRY 2:   1 1 1 3 2 1 3 2 1 3   2 6 5 4 1 3 2 6 5 4   1 2 3 1 2 3 4 5 6 1   2 3 1 1 1 1
 EXTRA SYMMETRY OF MOS IN SYMMETRY 3:   1 1 1 3 2 1 3 2 1 3   2 6 5 4 1 3 2 6 5 4   1 2 3 1 2 3 4 5 6 1   2 3 1 1 1 1
 EXTRA SYMMETRY OF MOS IN SYMMETRY 4:   1 1 3 2 1 3 2 1 3 2   1 1 2 3 1 1 2 3 1
 EXTRA SYMMETRY OF MOS IN SYMMETRY 5:   1 1 1 3 2 1 3 2 1 3   2 5 4 6 1 3 2 5 4 6   1 2 3 1 2 3 6 4 5 1   2 3 1 1 1 1
 EXTRA SYMMETRY OF MOS IN SYMMETRY 6:   1 1 3 2 1 3 2 1 3 2   1 1 2 3 1 1 2 3 1
 EXTRA SYMMETRY OF MOS IN SYMMETRY 7:   1 1 3 2 1 3 2 1 3 2   1 1 2 3 1 1 2 3 1
 EXTRA SYMMETRY OF MOS IN SYMMETRY 8:   1 1 1 2 3 1 2 3 1 1   3 2 1

 Natural orbital dump (state averaged) at molpro section  5202.2    (Orbital set 2)


 CI vector for state symmetry 1
 ==============================

 a a 0           1.0000000

 TOTAL ENERGIES                       -80.94914367

 CI vector for state symmetry 2
 ==============================

 a 0 a           1.0000000

 TOTAL ENERGIES                       -80.94914367

 CI vector for state symmetry 3
 ==============================

 0 a a           1.0000000

 TOTAL ENERGIES                       -80.94914367



 **********************************************************************************************************************************
 DATASETS  * FILE   NREC   LENGTH (MB)   RECORD NAMES
              1      21      141.75       500      610      700      900      950      970     1000      129      960     1100   
                                          VAR    BASINP    GEOM    SYMINP    ZMAT    AOBASIS   BASIS     P2S    ABASIS      S 
                                         1400     1410     1420     1200     1210     1080     1600     1650     1300     1700   
                                           T        V       ECP      H0       H01     AOSYM     SMH    MOLCAS    ERIS     OPER   
                                         1380   
                                         JKOP   

              2      10       18.35       200      700     1000      520     4202     5202     2101     2102     2103     2104   
                                        OPTIONS   GEOM     BASIS   MCVARS     RHF     MCSCF     RHF      RHF      RHF      RHF  

 PROGRAMS   *        TOTAL     MULTI       RHF  UCCSD(T)       RHF  UCCSD(T)       RHF  UCCSD(T)       RHF  UCCSD(T)       RHF
 CPU TIMES  *        71.16      2.59      2.17      7.38      0.86     10.35      1.13     12.66      1.04     16.72      0.20
 REAL TIME  *        78.63 SEC
 DISK USED  *       573.27 MB      
 **********************************************************************************************************************************

1PROGRAM * RHF-SCF (OPEN SHELL)       Authors: W. Meyer, H.-J. Werner


 NUMBER OF ELECTRONS:       7+    5-    SPACE SYMMETRY=4    SPIN SYMMETRY: Triplet 
 CONVERGENCE THRESHOLDS:    1.00E-05 (Density)    1.00E-07 (Energy)
 MAX. NUMBER OF ITERATIONS:        0
 INTERPOLATION TYPE:            DIIS
 INTERPOLATION STEPS:              2 (START)      1 (STEP)
 LEVEL SHIFTS:                 -0.30 (CLOSED)  0.00 (OPEN) 


 Singly occupied orbitals:      2.2       2.3
 Molecular orbitals read from record     5202.2  Type=MCSCF/NATURAL  

 Molecular orbital dump at record        2106.2

 ITERATION    DDIFF          GRAD             ENERGY        2-EL.EN.            DIPOLE MOMENTS         DIIS   ORB.
    1      0.000D+00      0.000D+00       -80.94914367    105.238256    0.00000    0.00000    0.00000    0    start

 Final alpha occupancy:   2   2   2   0   1   0   0   0
 Final beta  occupancy:   2   1   1   0   1   0   0   0

 !RHF STATE 1.4 Energy                -80.949143667488
 Nuclear energy                         0.00000000
 One-electron energy                 -133.56827159
 Two-electron energy                   52.61912792
 Virial quotient                       -1.28612181
 !RHF STATE 1.4 Dipole moment           0.00000000     0.00000000     0.00000000
 Dipole moment /Debye                   0.00000000     0.00000000     0.00000000

 Orbital energies:

         1.1          2.1          3.1          4.1
     -4.695472    -0.209786     0.145080     0.207228

         1.2          2.2          3.2          4.2
     -3.079939     0.122339     0.132589     0.336947

         1.3          2.3          3.3          4.3
     -3.079939     0.122339     0.132589     0.336947

         1.4          2.4
      0.207228     0.432249

         1.5          2.5          3.5
     -3.079939     0.122339     0.132589

         1.6          2.6
      0.207228     0.432249

         1.7          2.7
      0.207228     0.432249

         1.8          2.8
      0.336947     0.746667

 HOMO      2.2     0.122339 =       3.3290eV
 LUMO      2.5     0.122339 =       3.3290eV
 LUMO-HOMO         0.000000 =       0.0000eV


 **********************************************************************************************************************************
 DATASETS  * FILE   NREC   LENGTH (MB)   RECORD NAMES
              1      21      141.75       500      610      700      900      950      970     1000      129      960     1100   
                                          VAR    BASINP    GEOM    SYMINP    ZMAT    AOBASIS   BASIS     P2S    ABASIS      S 
                                         1400     1410     1420     1200     1210     1080     1600     1650     1300     1700   
                                           T        V       ECP      H0       H01     AOSYM     SMH    MOLCAS    ERIS     OPER   
                                         1380   
                                         JKOP   

              2      11       21.24       200      700     1000      520     4202     5202     2101     2102     2103     2104   
                                        OPTIONS   GEOM     BASIS   MCVARS     RHF     MCSCF     RHF      RHF      RHF      RHF  
                                         2106   
                                          RHF  

 PROGRAMS   *        TOTAL       RHF     MULTI       RHF  UCCSD(T)       RHF  UCCSD(T)       RHF  UCCSD(T)       RHF  UCCSD(T)
 CPU TIMES  *        71.38      0.21      2.59      2.17      7.38      0.86     10.35      1.13     12.66      1.04     16.72
 REAL TIME  *        78.92 SEC
 DISK USED  *       573.27 MB      
 **********************************************************************************************************************************
 SETTING SCF(5)         =       -80.94914367  AU                              
 SETTING _CC_NORM_MAX   =         2.00000000                                  


1PROGRAM * CCSD (Unrestricted open-shell coupled cluster)     Authors: C. Hampel, H.-J. Werner, 1991, M. Deegan, P.J. Knowles, 1992


 Convergence thresholds:  THRVAR = 1.00D-08  THRDEN = 1.00D-06

 CCSD(T)     terms to be evaluated (factor= 1.000)


 Number of closed-shell orbitals:   5 (   2   1   1   0   1   0   0   0 )
 Number of active  orbitals:        2 (   0   1   1   0   0   0   0   0 )
 Number of external orbitals:     225 (  52  34  34  19  35  19  19  13 )

 Memory could be reduced to 21.51 Mwords without degradation in triples

 Number of N-1 electron functions:              12
 Number of N-2 electron functions:              66
 Number of singly external CSFs:               488
 Number of doubly external CSFs:            346092
 Total number of CSFs:                      346580

 Molecular orbitals read from record     2106.2  Type=RHF/CANONICAL (state 1.4)

 Integral transformation finished. Total CPU:   0.78 sec, npass=  1  Memory used:   3.47 MW

 Starting RMP2 calculation

 ITER.      SQ.NORM     CORR.ENERGY   TOTAL ENERGY   ENERGY CHANGE        DEN1      VAR(S)    VAR(P)  DIIS     TIME
   1      1.06661181    -0.36969392   -81.31883759    -0.36969392    -0.00110999  0.67D-04  0.10D-02  1  1     0.80
   2      1.06973050    -0.37095227   -81.32009594    -0.00125835    -0.00001979  0.11D-05  0.26D-04  2  2     0.81
   3      1.07024021    -0.37108974   -81.32023341    -0.00013747    -0.00000052  0.91D-08  0.82D-06  3  3     0.83
   4      1.07027224    -0.37108935   -81.32023302     0.00000039    -0.00000001  0.35D-09  0.18D-07  4  4     0.85
   5      1.07027489    -0.37108976   -81.32023342    -0.00000040    -0.00000000  0.61D-11  0.22D-09  5  5     0.87

 Norm of t1 vector:      0.05035555      S-energy:    -0.00163039      T1 diagnostic:  0.00192802
 Norm of t2 vector:      0.26026757      P-energy:    -0.36945936
                                         Alpha-Beta:  -0.28419067
                                         Alpha-Alpha: -0.04844250
                                         Beta-Beta:   -0.03682620

 Spin contamination <S**2-Sz**2-Sz>     0.00442487
  Reference energy                    -80.949143667488
  RHF-RMP2 correlation energy          -0.371089755563
 !RHF-RMP2 energy                     -81.320233423051

 Starting UCCSD calculation

 ITER.      SQ.NORM     CORR.ENERGY   TOTAL ENERGY   ENERGY CHANGE        DEN1      VAR(S)    VAR(P)  DIIS     TIME
   1      1.07955061    -0.37740971   -81.32655337    -0.37740971    -0.00581624  0.10D-02  0.36D-02  1  1     1.89
   2      1.09412744    -0.38315969   -81.33230336    -0.00574998    -0.00072682  0.15D-03  0.58D-03  2  2     2.79
   3      1.10258003    -0.38525521   -81.33439888    -0.00209552    -0.00008180  0.28D-04  0.66D-04  3  3     3.69
   4      1.10624400    -0.38594397   -81.33508763    -0.00068876    -0.00000961  0.36D-05  0.76D-05  4  4     4.59
   5      1.10707034    -0.38601122   -81.33515488    -0.00006725    -0.00000109  0.56D-06  0.79D-06  5  5     5.48
   6      1.10730113    -0.38602759   -81.33517125    -0.00001637    -0.00000014  0.11D-06  0.89D-07  6  6     6.38
   7      1.10733519    -0.38602738   -81.33517105     0.00000021    -0.00000003  0.40D-07  0.15D-07  6  1     7.30
   8      1.10735101    -0.38602834   -81.33517201    -0.00000096    -0.00000001  0.17D-07  0.44D-08  6  2     8.21
   9      1.10735716    -0.38602836   -81.33517203    -0.00000001    -0.00000000  0.58D-08  0.14D-08  6  3     9.11

 Norm of t1 vector:      0.08463501      S-energy:    -0.00185982      T1 diagnostic:  0.01271956
                                                                       D1 diagnostic:  0.02577049
 Norm of t2 vector:      0.31653448      P-energy:    -0.38416853
                                         Alpha-Beta:  -0.29916184
                                         Alpha-Alpha: -0.04904422
                                         Beta-Beta:   -0.03596247

 Doubles amplitudes (print threshold =  0.500E-01):

         I         J         SYM. A    SYM. B    A         B      T(IJ, AB) [Alpha-Beta]

         2         2         5         5         1         1     -0.08795062

 Spin contamination <S**2-Sz**2-Sz>     0.00504574

 Memory could be reduced to 22.36 Mwords without degradation in triples
 

 RESULTS
 =======

  Reference energy                    -80.949143667488
  UCCSD singles energy                 -0.001859823995
  UCCSD pair energy                    -0.384168534022
  UCCSD correlation energy             -0.386028358018
  Triples (T) contribution             -0.007433511537
  Total correlation energy             -0.393461869555
 
  RHF-UCCSD energy                    -81.335172025506
  RHF-UCCSD[T] energy                 -81.342680113398
  RHF-UCCSD-T energy                  -81.342606884169
 !RHF-UCCSD(T) energy                 -81.342605537043

 Program statistics:

 Available memory in ccsd:               511999438
 Min. memory needed in ccsd:               1167028
 Max. memory used in ccsd:                 1566932
 Max. memory used in cckext:               1240868 ( 9 integral passes)
 Max. memory used in cckint:               3474316 ( 1 integral passes)



 **********************************************************************************************************************************
 DATASETS  * FILE   NREC   LENGTH (MB)   RECORD NAMES
              1      21      141.75       500      610      700      900      950      970     1000      129      960     1100   
                                          VAR    BASINP    GEOM    SYMINP    ZMAT    AOBASIS   BASIS     P2S    ABASIS      S 
                                         1400     1410     1420     1200     1210     1080     1600     1650     1300     1700   
                                           T        V       ECP      H0       H01     AOSYM     SMH    MOLCAS    ERIS     OPER   
                                         1380   
                                         JKOP   

              2      11       21.24       200      700     1000      520     4202     5202     2101     2102     2103     2104   
                                        OPTIONS   GEOM     BASIS   MCVARS     RHF     MCSCF     RHF      RHF      RHF      RHF  
                                         2106   
                                          RHF  

 PROGRAMS   *        TOTAL  UCCSD(T)       RHF     MULTI       RHF  UCCSD(T)       RHF  UCCSD(T)       RHF  UCCSD(T)       RHF
 CPU TIMES  *        92.46     21.08      0.21      2.59      2.17      7.38      0.86     10.35      1.13     12.66      1.04
 REAL TIME  *       101.47 SEC
 DISK USED  *       573.27 MB      
 **********************************************************************************************************************************
 SETTING CCSD(5)        =       -81.34260554  AU                              
 Output type csv         
                                                                                                                                                                                                                                                                

       SCF,CCSD
   -80.94770553,   -81.32718285
   -80.74594780,   -81.10826928
   -80.10115291,   -80.41700202
   -79.06914520,   -79.37215651
   -80.94914367,   -81.34260554
                                                  

        UCCSD(T)        RHF-SCF         MULTI           RHF-SCF         UCCSD(T)        RHF-SCF         UCCSD(T)        RHF-SCF 
    -81.34260554    -80.94914367    -80.94914367    -80.94926147    -79.37215651    -79.06914520    -80.41700202    -80.10115291
 **********************************************************************************************************************************
 Variable memory released
