
 Primary working directories    : /tmp/cmelton
 Secondary working directories  : /tmp/cmelton
 Wavefunction directory         : /remote/cmelton/wfu/
 Main file repository           : /tmp/cmelton/

 SHA1      : 4c1979699e6aeda0524d0210415ba82a958648b0
 NAME      : 2012.1.39
 ARCHNAME  : Linux/x86_64
 FC        : /projects/sems/install/rhel6-x86_64/sems/compiler/intel/16.0.1/base/bin/ifort
 FCVERSION : 16.0.1
 BLASLIB   : -L/projects/sems/install/rhel6-x86_64/sems/compiler/intel/16.0.1/base/compilers_and_libraries_2016.1.150/linux/mkl/lib/intel64 -lmkl_intel_ilp64 -lmkl_sequential -lmkl_core
 id        : sandiacon

 Nodes             nprocs
 s989256.sandia.gov    1

 Using customized tuning parameters: mindgm=7; mindgv=16; mindgc=1; mindgr=1; noblas=0; minvec=7
 default implementation of scratch files=df  

 ***,Calculation for Be atom, singlet and triplet
 memory,512,m
 gthresh,twoint=1.0E-12
 geometry={
 1
 Al
 Al  0.0 0.0 0.0
 }
 
 basis={
 ecp,Al,10,2,0
 5
   1, 0.0, 3
   1, 0.0,-11
   1  ,  10.99788500  ,   11.00000000
   3  ,  11.22045000  ,  120.97673500
   2  ,  11.08325000  ,  -80.39326600
 2
   2  ,  80.97577200  ,   25.00635800
   2  ,  24.39824000  ,  112.36079900
 1
   2, 1.0, 0.0
 Including file /remote/cmelton/data/corrECP/2nd_row/aug-cc-pCVQZ.basis
 }
 
 Including file /remote/cmelton/data/corrECP/2nd_row/Al/He-core/basis2/states.proc
 
 do i=1,5
 if (i.eq.1) then
     GS
 else if (i.eq.2) then
     IP1
 else if (i.eq.3) then
     IP2
 else if (i.eq.4) then
     IP3
 else if (i.eq.5) then
     EA
 endif
 scf(i)=energy
 _CC_NORM_MAX=2.0
 {uccsd(t),maxit=400;core}
 ccsd(i)=energy
 enddo
 
 table,scf,ccsd
 save
 type,csv

 Variables initialized (782), CPU time= 0.00 sec
 Commands  initialized (547), CPU time= 0.01 sec, 517 directives.
 Default parameters read. Elapsed time= 0.18 sec

 Checking input...
 Passed
1


                                         ***  PROGRAM SYSTEM MOLPRO  ***
                         Copyright, University College Cardiff Consultants Limited, 2008

                                    Version 2012.1 linked Aug  2 2016 14:07:26


 **********************************************************************************************************************************
 LABEL *   Calculation for Be atom, singlet and triplet                                  
 Linux-3.10.0-693.21.1.el7.x86_64/s989256.sandia.gov(x86_64) 64 bit serial version       DATE: 27-Apr-18          TIME: 13:22:47  
 **********************************************************************************************************************************

 SHA1:             4c1979699e6aeda0524d0210415ba82a958648b0
 **********************************************************************************************************************************

 THRESHOLDS:

 ZERO    =  1.00D-12  ONEINT  =  1.00D-12  TWOINT  =  1.00D-12  PREFAC  =  1.00D-14  LOCALI  =  1.00D-09  EORDER  =  1.00D-04
 ENERGY  =  0.00D+00  ETEST   =  0.00D+00  EDENS   =  0.00D+00  THRDEDEF=  1.00D-06  GRADIENT=  1.00D-02  STEP    =  1.00D-03
 ORBITAL =  1.00D-05  CIVEC   =  1.00D-05  COEFF   =  1.00D-04  PRINTCI =  5.00D-02  PUNCHCI =  9.90D+01  OPTGRAD =  3.00D-04
 OPTENERG=  1.00D-06  OPTSTEP =  3.00D-04  THRGRAD =  1.00D-10  COMPRESS=  1.00D-11  VARMIN  =  1.00D-07  VARMAX  =  1.00D-03
 THRDOUB =  0.00D+00  THRDIV  =  1.00D-05  THRRED  =  1.00D-07  THRPSP  =  1.00D+00  THRDC   =  1.00D-10  THRCS   =  1.00D-10
 THRNRM  =  1.00D-08  THREQ   =  0.00D+00  THRDE   =  1.00D+00  THRREF  =  1.00D-05  SPARFAC =  1.00D+00  THRDLP  =  1.00D-07
 THRDIA  =  1.00D-10  THRDLS  =  1.00D-07  THRGPS  =  0.00D+00  THRKEX  =  0.00D+00  THRDIS  =  2.00D-01  THRVAR  =  1.00D-10
 THRLOC  =  1.00D-06  THRGAP  =  1.00D-06  THRLOCT = -1.00D+00  THRGAPT = -1.00D+00  THRORB  =  1.00D-06  THRMLTP =  0.00D+00
 THRCPQCI=  1.00D-10  KEXTA   =  0.00D+00  THRCOARS=  0.00D+00  SYMTOL  =  1.00D-06  GRADTOL =  1.00D-06  THROVL  =  1.00D-08
 THRORTH =  1.00D-08  GRID    =  1.00D-06  GRIDMAX =  1.00D-03  DTMAX   =  0.00D+00  THROCCDE=  1.00D-01  THROCCDE=  1.00D-01



Geometry recognized as XYZ


 Variable memory set to  512000000 words,  buffer space   230000 words

 SETTING BASIS          =    USERDEF

 DO I                   =         1.00000000   

 Running procedure=GS


 Recomputing integrals since basis changed


 Using spherical harmonics


1PROGRAM * SEWARD (Integral evaluation for generally contracted gaussian basis sets)     Author: Roland Lindh, 1990

 Geometry written to block  1 of record 700

 Orientation using atomic masses  
 Molecule type: Atom
 Symmetry elements: X,Y,Z
 Rotational constants:       0.0000000      0.0000000      0.0000000 GHz  (calculated with average atomic masses)

 Point group  D2h 



 ATOMIC COORDINATES

 NR  ATOM    CHARGE       X              Y              Z

   1  AL      3.00    0.000000000    0.000000000    0.000000000

 NUCLEAR CHARGE:                    3
 NUMBER OF PRIMITIVE AOS:         202
 NUMBER OF SYMMETRY AOS:          162
 NUMBER OF CONTRACTIONS:          162   (  43Ag  +  25B3u +  25B2u +  13B1g +  25B1u +  13B2g +  13B3g +   5Au  )
 NUMBER OF CORE ORBITALS:           0   (   0Ag  +   0B3u +   0B2u +   0B1g +   0B1u +   0B2g +   0B3g +   0Au  )
 NUMBER OF VALENCE ORBITALS:        4   (   1Ag  +   1B3u +   1B2u +   0B1g +   1B1u +   0B2g +   0B3g +   0Au  )


 NUCLEAR REPULSION ENERGY    0.00000000

 EXTRA SYMMETRY OF AOS IN SYMMETRY 1:   1 1 1 1 1 1 1 1 1 1   1 1 1 1 1 1 1 1 1 1   2 3 2 3 2 3 2 3 2 3   2 3 2 3 4 5 6 4 5 6
                                        4 5 6
 EXTRA SYMMETRY OF AOS IN SYMMETRY 2:   1 1 1 1 1 1 1 1 1 1   1 1 1 1 1 2 3 2 3 2   3 2 3 2 3
 EXTRA SYMMETRY OF AOS IN SYMMETRY 3:   1 1 1 1 1 1 1 1 1 1   1 1 1 1 1 2 3 2 3 2   3 2 3 2 3
 EXTRA SYMMETRY OF AOS IN SYMMETRY 4:   1 1 1 1 1 1 1 2 3 2   3 2 3
 EXTRA SYMMETRY OF AOS IN SYMMETRY 5:   1 1 1 1 1 1 1 1 1 1   1 1 1 1 1 2 3 2 3 2   3 2 3 2 3
 EXTRA SYMMETRY OF AOS IN SYMMETRY 6:   1 1 1 1 1 1 1 2 3 2   3 2 3
 EXTRA SYMMETRY OF AOS IN SYMMETRY 7:   1 1 1 1 1 1 1 2 3 2   3 2 3

 Eigenvalues of metric

         1 0.603E-07 0.296E-05 0.132E-03 0.247E-02 0.494E-02 0.921E-02 0.196E-01 0.404E-01
         2 0.294E-07 0.572E-06 0.233E-04 0.139E-01 0.341E-01 0.693E-01 0.141E+00 0.219E+00
         3 0.294E-07 0.572E-06 0.233E-04 0.139E-01 0.341E-01 0.693E-01 0.141E+00 0.219E+00
         4 0.730E-01 0.146E+00 0.366E+00 0.381E+00 0.381E+00 0.712E+00 0.100E+01 0.100E+01
         5 0.294E-07 0.572E-06 0.233E-04 0.139E-01 0.341E-01 0.693E-01 0.141E+00 0.219E+00
         6 0.730E-01 0.146E+00 0.366E+00 0.381E+00 0.381E+00 0.712E+00 0.100E+01 0.100E+01
         7 0.730E-01 0.146E+00 0.366E+00 0.381E+00 0.381E+00 0.712E+00 0.100E+01 0.100E+01
         8 0.219E+00 0.431E+00 0.840E+00 0.156E+01 0.195E+01


 Contracted 2-electron integrals neglected if value below      1.0D-13
 AO integral compression algorithm  1   Integral accuracy      1.0D-13

     81.789 MB (compressed) written to integral file ( 51.8%)


 NUMBER OF SORTED TWO-ELECTRON INTEGRALS:   11515555.     BUFFER LENGTH:  32768
 NUMBER OF SEGMENTS:   1  SEGMENT LENGTH:   11515555      RECORD LENGTH: 524288

 Memory used in sort:      12.07 MW

 SORT1 READ    19731641. AND WROTE     7786820. INTEGRALS IN     23 RECORDS. CPU TIME:     0.35 SEC, REAL TIME:     0.43 SEC
 SORT2 READ     7786820. AND WROTE    11515555. INTEGRALS IN    312 RECORDS. CPU TIME:     0.24 SEC, REAL TIME:     0.31 SEC

 FILE SIZES:   FILE 1:    90.0 MBYTE,  FILE 4:    96.5 MBYTE,   TOTAL:    186.5 MBYTE

 OPERATOR DM      FOR CENTER  0  COORDINATES:    0.000000    0.000000    0.000000


 **********************************************************************************************************************************
 DATASETS  * FILE   NREC   LENGTH (MB)   RECORD NAMES
              1      20       51.69       500      610      700      900      950      970     1000      129      960     1100   
                                          VAR    BASINP    GEOM    SYMINP    ZMAT    AOBASIS   BASIS     P2S    ABASIS      S 
                                         1400     1410     1420     1200     1210     1080     1600     1650     1300     1700   
                                           T        V       ECP      H0       H01     AOSYM     SMH    MOLCAS    ERIS     OPER   

 PROGRAMS   *        TOTAL       INT
 CPU TIMES  *         4.13      3.98
 REAL TIME  *         4.94 SEC
 DISK USED  *       188.07 MB      
 **********************************************************************************************************************************

1PROGRAM * RHF-SCF (OPEN SHELL)       Authors: W. Meyer, H.-J. Werner


 NUMBER OF ELECTRONS:       6+    5-    SPACE SYMMETRY=2    SPIN SYMMETRY: Doublet 
 CONVERGENCE THRESHOLDS:    1.00E-05 (Density)    1.00E-07 (Energy)
 MAX. NUMBER OF ITERATIONS:       60
 INTERPOLATION TYPE:            DIIS
 INTERPOLATION STEPS:              2 (START)      1 (STEP)
 LEVEL SHIFTS:                 -0.30 (CLOSED)  0.00 (OPEN) 


 Singly occupied orbitals:      2.2
 Orbital guess generated from atomic densities. Full valence occupancy:    1   1   1   0   1   0   0   0


 Molecular orbital dump at record        4202.2

 ITERATION    DDIFF          GRAD             ENERGY        2-EL.EN.            DIPOLE MOMENTS         DIIS   ORB.
    1      0.000D+00      0.000D+00       -69.87194100    149.947146    0.00000    0.00000    0.00000    0    start
    2      0.000D+00      0.460D+00       -78.90929319     78.588857    0.00000    0.00000    0.00000    1    diag,B
    3      0.210D+02      0.177D+00       -80.89155510    101.052880    0.00000    0.00000    0.00000    2    diag,B
    4      0.248D+01      0.198D-01       -80.93672912    100.960881    0.00000    0.00000    0.00000    3    diag,B
    5      0.396D+00      0.413D-02       -80.94530000    100.931427    0.00000    0.00000    0.00000    4    diag,B
    6      0.653D-01      0.152D-02       -80.94765793    101.010971    0.00000    0.00000    0.00000    5    diag,B
    7      0.162D-01      0.435D-03       -80.94786347    101.065204    0.00000    0.00000    0.00000    6    fixocc
    8      0.422D-02      0.805D-04       -80.94786804    101.073625    0.00000    0.00000    0.00000    7    diag,B
    9      0.298D-02      0.175D-04       -80.94786837    101.074037    0.00000    0.00000    0.00000    8    diag,B
   10      0.260D-03      0.509D-05       -80.94786841    101.073826    0.00000    0.00000    0.00000    9    orth
   11      0.227D-03      0.583D-06       -80.94786841    101.073771    0.00000    0.00000    0.00000    9    diag,B
   12      0.281D-04      0.103D-06       -80.94786841    101.073776    0.00000    0.00000    0.00000    9    diag,B
   13      0.182D-05      0.357D-07       -80.94786841    101.073777    0.00000    0.00000    0.00000    0    orth

 Final alpha occupancy:   2   2   1   0   1   0   0   0
 Final beta  occupancy:   2   1   1   0   1   0   0   0

 !RHF STATE 1.2 Energy                -80.947868405578
 Nuclear energy                         0.00000000
 One-electron energy                 -131.48475678
 Two-electron energy                   50.53688837
 Virial quotient                       -1.28757814
 !RHF STATE 1.2 Dipole moment           0.00000000     0.00000000     0.00000000
 Dipole moment /Debye                   0.00000000     0.00000000     0.00000000

 Orbital energies:

         1.1          2.1          3.1          4.1
     -4.889083    -0.394339     0.035616     0.083251

         1.2          2.2          3.2          4.2
     -3.271494    -0.209877     0.035452     0.196177

         1.3          2.3          3.3
     -3.272818     0.007274     0.046011

         1.4          2.4
      0.084151     0.249043

         1.5          2.5          3.5
     -3.272818     0.007274     0.046011

         1.6          2.6
      0.084151     0.249043

         1.7          2.7
      0.083251     0.256656

         1.8          2.8
      0.236161     0.698661

 HOMO      2.2    -0.209877 =      -5.7110eV
 LUMO      2.3     0.007274 =       0.1979eV
 LUMO-HOMO         0.217151 =       5.9090eV


 **********************************************************************************************************************************
 DATASETS  * FILE   NREC   LENGTH (MB)   RECORD NAMES
              1      20       51.69       500      610      700      900      950      970     1000      129      960     1100   
                                          VAR    BASINP    GEOM    SYMINP    ZMAT    AOBASIS   BASIS     P2S    ABASIS      S 
                                         1400     1410     1420     1200     1210     1080     1600     1650     1300     1700   
                                           T        V       ECP      H0       H01     AOSYM     SMH    MOLCAS    ERIS     OPER   

              2       5        4.19       200      700     1000      520     4202   
                                        OPTIONS   GEOM     BASIS   MCVARS     RHF  

 PROGRAMS   *        TOTAL       RHF       INT
 CPU TIMES  *         4.62      0.48      3.98
 REAL TIME  *         5.58 SEC
 DISK USED  *       188.07 MB      
 **********************************************************************************************************************************

1PROGRAM * MULTI (Direct Multiconfiguration SCF)       Authors: P.J. Knowles, H.-J. Werner (1984)     S.T. Elbert (1988)


 Number of closed-shell orbitals:   5 (   2   1   1   0   1   0   0   0 )
 Number of active  orbitals:        3 (   0   1   1   0   1   0   0   0 )
 Number of external orbitals:     154 (  41  23  23  13  23  13  13   5 )

 State symmetry 1

 Number of electrons:     1    Spin symmetry=Doublet   Space symmetry=2
 Number of states:        1
 Number of CSFs:          1   (1 determinants, 3 intermediate states)

 State symmetry 2

 Number of electrons:     1    Spin symmetry=Doublet   Space symmetry=3
 Number of states:        1
 Number of CSFs:          1   (1 determinants, 3 intermediate states)

 State symmetry 3

 Number of electrons:     1    Spin symmetry=Doublet   Space symmetry=5
 Number of states:        1
 Number of CSFs:          1   (1 determinants, 3 intermediate states)

 Molecular orbitals read from record     4202.2  Type=RHF/CANONICAL (state 1.2)
 *** IN SYMMETRY 1 ORBITAL  1 SYMMETRY CONTAMINATION OF 0.309D-03 HAS BEEN REMOVED
 *** IN SYMMETRY 1 ORBITAL  2 SYMMETRY CONTAMINATION OF 0.510D-02 HAS BEEN REMOVED

 EXTRA SYMMETRY OF MOS IN SYMMETRY 1:   1 1 1 2 3 1 3 2 2 3   4 5 6 1 2 3 4 5 6 1   2 3 1 2 3 1 4 5 6 1   2 3 1 1 1 1 1 1 1 1
                                        1 1 1
 *** IN SYMMETRY 2 ORBITAL  1 SYMMETRY CONTAMINATION OF 0.274D-03 HAS BEEN REMOVED
 *** IN SYMMETRY 2 ORBITAL  2 SYMMETRY CONTAMINATION OF 0.246D-03 HAS BEEN REMOVED
 EXTRA SYMMETRY OF MOS IN SYMMETRY 2:   1 1 1 1 2 1 2 3 1 2   3 1 1 2 3 1 1 2 3 1   1 1 1 1 3
 *** IN SYMMETRY 3 ORBITAL  1 SYMMETRY CONTAMINATION OF 0.192D-03 HAS BEEN REMOVED
 *** IN SYMMETRY 3 ORBITAL  2 SYMMETRY CONTAMINATION OF 0.477D-02 HAS BEEN REMOVED
 EXTRA SYMMETRY OF MOS IN SYMMETRY 3:   1 1 1 1 2 1 2 3 1 2   3 1 1 2 3 1 1 2 3 1   1 1 1 1 3
 EXTRA SYMMETRY OF MOS IN SYMMETRY 4:   1 1 1 2 3 1 2 3 1 1   2 3 1
 *** IN SYMMETRY 5 ORBITAL  1 SYMMETRY CONTAMINATION OF 0.221D-03 HAS BEEN REMOVED
 *** IN SYMMETRY 5 ORBITAL  2 SYMMETRY CONTAMINATION OF 0.549D-02 HAS BEEN REMOVED
 EXTRA SYMMETRY OF MOS IN SYMMETRY 5:   1 1 1 1 2 1 2 3 1 2   3 1 1 2 3 1 1 2 3 1   1 1 1 1 3
 EXTRA SYMMETRY OF MOS IN SYMMETRY 6:   1 1 1 3 2 1 3 2 1 1   3 2 1
 EXTRA SYMMETRY OF MOS IN SYMMETRY 7:   1 1 1 2 3 1 2 3 1 1   2 3 1

 Wavefunction dump at record             5202.2

 Convergence thresholds  0.10E-01 (gradient)  0.10E-05 (energy)  0.10E-02 (step length)

 Weight factors for state symmetry  1:    0.33333
 Weight factors for state symmetry  2:    0.33333
 Weight factors for state symmetry  3:    0.33333

 Number of orbital rotations:      223   (     3 Core/Active    151 Core/Virtual   0 Active/Active     69 Active/Virtual)
 Total number of variables:        226


 ITER. MIC  NCI  NEG     ENERGY(VAR)     ENERGY(PROJ)   ENERGY CHANGE     GRAD(0)  GRAD(ORB)   GRAD(CI)     STEP       TIME

   1   26   21    0     -80.91704462     -80.94777485   -0.03073023    0.04972140 0.00000000 0.00000000  0.80D+00      0.15
   2   22   24    0     -80.94767599     -80.94772767   -0.00005167    0.00820993 0.00000000 0.00000000  0.84D-02      0.29
   3   22   15    0     -80.94772771     -80.94772771   -0.00000000    0.00001452 0.00000000 0.00000000  0.30D-04      0.42

 ** WVFN ****  CONVERGENCE REACHED, FINAL GRADIENT:  0.16D-08



 Results for state 1.2
 =====================

 !MCSCF STATE 1.2 Energy              -80.947727712668
 Nuclear energy                         0.00000000
 Kinetic energy                        62.86819995
 One electron energy                 -131.48440611
 Two electron energy                   50.53667840
 Virial ratio                           2.28757826

 !MCSCF STATE 1.2 Dipole moment         0.00000000     0.00000000     0.00000000
 Dipole moment /Debye                   0.00000000     0.00000000     0.00000000



 Results for state 1.3
 =====================

 !MCSCF STATE 1.3 Energy              -80.947727712668
 Nuclear energy                         0.00000000
 Kinetic energy                        62.86819995
 One electron energy                 -131.48440611
 Two electron energy                   50.53667840
 Virial ratio                           2.28757826

 !MCSCF STATE 1.3 Dipole moment         0.00000000     0.00000000     0.00000000
 Dipole moment /Debye                   0.00000000     0.00000000     0.00000000



 Results for state 1.5
 =====================

 !MCSCF STATE 1.5 Energy              -80.947727712668
 Nuclear energy                         0.00000000
 Kinetic energy                        62.86819995
 One electron energy                 -131.48440611
 Two electron energy                   50.53667840
 Virial ratio                           2.28757826

 !MCSCF STATE 1.5 Dipole moment         0.00000000     0.00000000     0.00000000
 Dipole moment /Debye                   0.00000000     0.00000000     0.00000000

 State-averaged charge density matrix saved on record  5202.2 (density set 1)


 NATURAL ORBITALS (state averaged)
 =================================

   Orb     Occ        Energy       Coefficients

                                   1 1s      1 1s      1 1s      1 1s      1 1s      1 1s      1 1s      1 1s      1 1s      1 1s   
                                   1 1s      1 1s      1 1s      1 1s      1 1s      1 1s      1 1s      1 1s      1 1s      1 1s   
                                   1 3d0     1 3d2+    1 3d0     1 3d2+    1 3d0     1 3d2+    1 3d0     1 3d2+    1 3d0     1 3d2+ 
                                   1 3d0     1 3d2+    1 3d0     1 3d2+    1 5g0     1 5g4+    1 5g2+    1 5g0     1 5g4+    1 5g2+ 
                                   1 5g0     1 5g4+    1 5g2+ 

   1.1  2.00000    -4.889131    -0.000000  0.000000 -0.000003  0.000016 -0.000071  0.000289 -0.001124  0.005050 -0.013868 -0.347825
                                -2.573532  1.634992  0.349105  0.031293 -0.016075  0.005957  0.368497  2.780749 -1.251820 -0.001359
                                 0.000000  0.000000  0.000000  0.000000  0.000000  0.000000  0.000000  0.000000  0.000000  0.000000
                                 0.000000  0.000000  0.000000  0.000000  0.000000  0.000000  0.000000  0.000000  0.000000  0.000000
                                 0.000000  0.000000  0.000000

   2.1  2.00000    -0.394324     0.000000 -0.000000  0.000001 -0.000004  0.000019 -0.000078  0.000306 -0.001391  0.004626  0.085761
                                 0.637557 -0.474487 -0.244039  0.273664  0.609043  0.280844 -0.090965 -0.695176  0.328056  0.002698
                                 0.000000  0.000000  0.000000  0.000000  0.000000  0.000000  0.000000  0.000000  0.000000  0.000000
                                 0.000000  0.000000  0.000000  0.000000  0.000000  0.000000  0.000000  0.000000  0.000000  0.000000
                                 0.000000  0.000000  0.000000

                                   1 2px     1 2px     1 2px     1 2px     1 2px     1 2px     1 2px     1 2px     1 2px     1 2px  
                                   1 2px     1 2px     1 2px     1 2px     1 2px     1 4f1+    1 4f3+    1 4f1+    1 4f3+    1 4f1+ 
                                   1 4f3+    1 4f1+    1 4f3+    1 4f1+    1 4f3+ 

   1.2  2.00000    -3.272423    -0.000011  0.000099 -0.000417  0.042055  0.649052  2.149810 -0.978182  0.205069  0.018722 -0.001415
                                 0.000756 -0.467961 -1.800621  1.383322 -0.000171  0.000000  0.000000  0.000000  0.000000  0.000000
                                 0.000000  0.000000  0.000000  0.000000  0.000000

   2.2  0.33333     0.001589     0.000002 -0.000017  0.000073 -0.007591 -0.117463 -0.396100 -0.021383 -0.026395  0.235691  0.554898
                                 0.347644  0.085653  0.329913 -0.063498  0.009425  0.000000  0.000000  0.000000  0.000000  0.000000
                                 0.000000  0.000000  0.000000  0.000000  0.000000

                                   1 2py     1 2py     1 2py     1 2py     1 2py     1 2py     1 2py     1 2py     1 2py     1 2py  
                                   1 2py     1 2py     1 2py     1 2py     1 2py     1 4f1-    1 4f3-    1 4f1-    1 4f3-    1 4f1- 
                                   1 4f3-    1 4f1-    1 4f3-    1 4f1-    1 4f3- 

   1.3  2.00000    -3.272423    -0.000011  0.000099 -0.000417  0.042055  0.649052  2.149810 -0.978182  0.205069  0.018722 -0.001415
                                 0.000756 -0.467961 -1.800621  1.383322 -0.000171  0.000000  0.000000  0.000000  0.000000  0.000000
                                 0.000000  0.000000  0.000000  0.000000  0.000000

   2.3  0.33333     0.001589     0.000002 -0.000017  0.000073 -0.007591 -0.117463 -0.396100 -0.021383 -0.026395  0.235691  0.554898
                                 0.347644  0.085653  0.329913 -0.063498  0.009425  0.000000  0.000000  0.000000  0.000000  0.000000
                                 0.000000  0.000000  0.000000  0.000000  0.000000

                                   1 2pz     1 2pz     1 2pz     1 2pz     1 2pz     1 2pz     1 2pz     1 2pz     1 2pz     1 2pz  
                                   1 2pz     1 2pz     1 2pz     1 2pz     1 2pz     1 4f0     1 4f2+    1 4f0     1 4f2+    1 4f0  
                                   1 4f2+    1 4f0     1 4f2+    1 4f0     1 4f2+ 

   1.5  2.00000    -3.272423    -0.000011  0.000099 -0.000417  0.042055  0.649052  2.149810 -0.978182  0.205069  0.018722 -0.001415
                                 0.000756 -0.467961 -1.800621  1.383322 -0.000171  0.000000  0.000000  0.000000  0.000000  0.000000
                                 0.000000  0.000000  0.000000  0.000000  0.000000

   2.5  0.33333     0.001589     0.000002 -0.000017  0.000073 -0.007591 -0.117463 -0.396100 -0.021383 -0.026395  0.235691  0.554898
                                 0.347644  0.085653  0.329913 -0.063498  0.009425  0.000000  0.000000  0.000000  0.000000  0.000000
                                 0.000000  0.000000  0.000000  0.000000  0.000000

 Total charge:  -8.000000000000
 

 EXTRA SYMMETRY OF MOS IN SYMMETRY 1:   1 1 1 3 2 1 3 2 3 2   5 6 4 1 2 3 4 6 5 1   2 3 1 2 3 1 4 6 5 1   3 2 1 1 1 1 1 1 1 1
                                        1 1 1
 EXTRA SYMMETRY OF MOS IN SYMMETRY 2:   1 1 1 1 2 3 3 2 1 3   2 1 1 2 3 1 1 2 3 1   1 1 1 1 1
 EXTRA SYMMETRY OF MOS IN SYMMETRY 3:   1 1 1 1 3 2 3 2 1 2   3 1 1 2 3 1 1 2 3 1   1 1 1 1 1
 EXTRA SYMMETRY OF MOS IN SYMMETRY 4:   1 1 1 3 2 1 3 2 1 1   3 2 1
 EXTRA SYMMETRY OF MOS IN SYMMETRY 5:   1 1 1 1 2 3 3 2 1 2   3 1 1 3 2 1 1 2 3 1   1 1 1 1 1
 EXTRA SYMMETRY OF MOS IN SYMMETRY 6:   1 1 1 3 2 1 2 3 1 1   2 3 1
 EXTRA SYMMETRY OF MOS IN SYMMETRY 7:   1 1 1 3 2 1 2 3 1 1   3 2 1

 Natural orbital dump (state averaged) at molpro section  5202.2    (Orbital set 2)


 CI vector for state symmetry 1
 ==============================

 a 0 0           1.0000000

 TOTAL ENERGIES                       -80.94772771

 CI vector for state symmetry 2
 ==============================

 0 a 0           1.0000000

 TOTAL ENERGIES                       -80.94772771

 CI vector for state symmetry 3
 ==============================

 0 0 a           1.0000000

 TOTAL ENERGIES                       -80.94772771



 **********************************************************************************************************************************
 DATASETS  * FILE   NREC   LENGTH (MB)   RECORD NAMES
              1      21       53.33       500      610      700      900      950      970     1000      129      960     1100   
                                          VAR    BASINP    GEOM    SYMINP    ZMAT    AOBASIS   BASIS     P2S    ABASIS      S 
                                         1400     1410     1420     1200     1210     1080     1600     1650     1300     1700   
                                           T        V       ECP      H0       H01     AOSYM     SMH    MOLCAS    ERIS     OPER   
                                         1380   
                                         JKOP   

              2       6        6.82       200      700     1000      520     4202     5202   
                                        OPTIONS   GEOM     BASIS   MCVARS     RHF     MCSCF   

 PROGRAMS   *        TOTAL     MULTI       RHF       INT
 CPU TIMES  *         5.19      0.58      0.48      3.98
 REAL TIME  *         6.62 SEC
 DISK USED  *       188.07 MB      
 **********************************************************************************************************************************

1PROGRAM * RHF-SCF (OPEN SHELL)       Authors: W. Meyer, H.-J. Werner


 NUMBER OF ELECTRONS:       6+    5-    SPACE SYMMETRY=2    SPIN SYMMETRY: Doublet 
 CONVERGENCE THRESHOLDS:    1.00E-05 (Density)    1.00E-07 (Energy)
 MAX. NUMBER OF ITERATIONS:        0
 INTERPOLATION TYPE:            DIIS
 INTERPOLATION STEPS:              2 (START)      1 (STEP)
 LEVEL SHIFTS:                 -0.30 (CLOSED)  0.00 (OPEN) 


 Singly occupied orbitals:      2.2
 Molecular orbitals read from record     5202.2  Type=MCSCF/NATURAL  

 Molecular orbital dump at record        2101.2

 ITERATION    DDIFF          GRAD             ENERGY        2-EL.EN.            DIPOLE MOMENTS         DIIS   ORB.
    1      0.000D+00      0.000D+00       -80.94772771    101.073357    0.00000    0.00000    0.00000    0    start

 Final alpha occupancy:   2   2   1   0   1   0   0   0
 Final beta  occupancy:   2   1   1   0   1   0   0   0

 !RHF STATE 1.2 Energy                -80.947727712668
 Nuclear energy                         0.00000000
 One-electron energy                 -131.48440611
 Two-electron energy                   50.53667840
 Virial quotient                       -1.28757826
 !RHF STATE 1.2 Dipole moment           0.00000000     0.00000000     0.00000000
 Dipole moment /Debye                   0.00000000     0.00000000     0.00000000

 Orbital energies:

         1.1          2.1          3.1          4.1
     -4.889131    -0.394324     0.037564     0.086086

         1.2          2.2          3.2          4.2
     -3.272423     0.001589     0.035856     0.206826

         1.3          2.3          3.3
     -3.272423     0.001589     0.035856

         1.4          2.4
      0.086086     0.262216

         1.5          2.5          3.5
     -3.272423     0.001589     0.035856

         1.6          2.6
      0.086086     0.262216

         1.7          2.7
      0.086086     0.262216

         1.8          2.8
      0.238194     0.705434

 HOMO      2.2     0.001589 =       0.0433eV
 LUMO      2.3     0.001589 =       0.0433eV
 LUMO-HOMO         0.000000 =       0.0000eV


 **********************************************************************************************************************************
 DATASETS  * FILE   NREC   LENGTH (MB)   RECORD NAMES
              1      21       53.33       500      610      700      900      950      970     1000      129      960     1100   
                                          VAR    BASINP    GEOM    SYMINP    ZMAT    AOBASIS   BASIS     P2S    ABASIS      S 
                                         1400     1410     1420     1200     1210     1080     1600     1650     1300     1700   
                                           T        V       ECP      H0       H01     AOSYM     SMH    MOLCAS    ERIS     OPER   
                                         1380   
                                         JKOP   

              2       7        9.53       200      700     1000      520     4202     5202     2101   
                                        OPTIONS   GEOM     BASIS   MCVARS     RHF     MCSCF     RHF  

 PROGRAMS   *        TOTAL       RHF     MULTI       RHF       INT
 CPU TIMES  *         5.28      0.09      0.58      0.48      3.98
 REAL TIME  *         6.77 SEC
 DISK USED  *       188.07 MB      
 **********************************************************************************************************************************
 SETTING SCF(1)         =       -80.94772771  AU                              
 SETTING _CC_NORM_MAX   =         2.00000000                                  


1PROGRAM * CCSD (Unrestricted open-shell coupled cluster)     Authors: C. Hampel, H.-J. Werner, 1991, M. Deegan, P.J. Knowles, 1992


 Convergence thresholds:  THRVAR = 1.00D-08  THRDEN = 1.00D-06

 CCSD(T)     terms to be evaluated (factor= 1.000)


 Number of closed-shell orbitals:   5 (   2   1   1   0   1   0   0   0 )
 Number of active  orbitals:        1 (   0   1   0   0   0   0   0   0 )
 Number of external orbitals:     156 (  41  23  24  13  24  13  13   5 )

 Memory could be reduced to 7.11 Mwords without degradation in triples

 Number of N-1 electron functions:              11
 Number of N-2 electron functions:              55
 Number of singly external CSFs:               332
 Number of doubly external CSFs:            141022
 Total number of CSFs:                      141354

 Molecular orbitals read from record     2101.2  Type=RHF/CANONICAL (state 1.2)

 Integral transformation finished. Total CPU:   0.21 sec, npass=  1  Memory used:   1.03 MW

 Starting RMP2 calculation

 ITER.      SQ.NORM     CORR.ENERGY   TOTAL ENERGY   ENERGY CHANGE        DEN1      VAR(S)    VAR(P)  DIIS     TIME
   1      1.05073131    -0.34614882   -81.29387653    -0.34614882    -0.00064027  0.68D-04  0.46D-03  1  1     0.22
   2      1.05212231    -0.34684570   -81.29457342    -0.00069689    -0.00000800  0.12D-05  0.63D-05  2  2     0.22
   3      1.05229967    -0.34691432   -81.29464203    -0.00006861    -0.00000005  0.30D-08  0.42D-07  3  3     0.23
   4      1.05230170    -0.34691395   -81.29464166     0.00000037    -0.00000000  0.22D-10  0.20D-09  4  4     0.23

 Norm of t1 vector:      0.05478747      S-energy:    -0.00220796      T1 diagnostic:  0.00208001
 Norm of t2 vector:      0.22203610      P-energy:    -0.34470600
                                         Alpha-Beta:  -0.26775354
                                         Alpha-Alpha: -0.04036991
                                         Beta-Beta:   -0.03658255

 Spin contamination <S**2-Sz**2-Sz>     0.00796998
  Reference energy                    -80.947727712667
  RHF-RMP2 correlation energy          -0.346913951496
 !RHF-RMP2 energy                     -81.294641664163

 Starting UCCSD calculation

 ITER.      SQ.NORM     CORR.ENERGY   TOTAL ENERGY   ENERGY CHANGE        DEN1      VAR(S)    VAR(P)  DIIS     TIME
   1      1.06277203    -0.35546638   -81.30319409    -0.35546638    -0.00508717  0.70D-03  0.28D-02  1  1     0.56
   2      1.07459544    -0.36061815   -81.30834586    -0.00515177    -0.00069515  0.10D-03  0.50D-03  2  2     0.88
   3      1.08208681    -0.36264593   -81.31037364    -0.00202778    -0.00007671  0.14D-04  0.55D-04  3  3     1.13
   4      1.08524292    -0.36331870   -81.31104642    -0.00067278    -0.00000732  0.23D-05  0.46D-05  4  4     1.39
   5      1.08583995    -0.36338915   -81.31111686    -0.00007045    -0.00000067  0.35D-06  0.38D-06  5  5     1.64
   6      1.08595373    -0.36340031   -81.31112802    -0.00001115    -0.00000006  0.50D-07  0.30D-07  6  6     1.90
   7      1.08596739    -0.36340110   -81.31112881    -0.00000080    -0.00000001  0.11D-07  0.43D-08  6  1     2.15
   8      1.08597025    -0.36340126   -81.31112898    -0.00000016    -0.00000000  0.34D-08  0.10D-08  6  2     2.41

 Norm of t1 vector:      0.07740568      S-energy:    -0.00248260      T1 diagnostic:  0.00994984
                                                                       D1 diagnostic:  0.02560349
 Norm of t2 vector:      0.28280489      P-energy:    -0.36091866
                                         Alpha-Beta:  -0.28557347
                                         Alpha-Alpha: -0.03965634
                                         Beta-Beta:   -0.03568885

 Doubles amplitudes (print threshold =  0.500E-01):

         I         J         SYM. A    SYM. B    A         B      T(IJ, AB) [Alpha-Beta]

         2         2         3         3         1         1     -0.10787438
         2         2         5         5         1         1     -0.10787443
         4         2         1         2         5         1     -0.05683188
         4         2         4         3         2         1     -0.05653460
         4         2         6         5         2         1     -0.05653473

 Spin contamination <S**2-Sz**2-Sz>     0.00172742

 Memory could be reduced to 7.33 Mwords without degradation in triples
 

 RESULTS
 =======

  Reference energy                    -80.947727712667
  UCCSD singles energy                 -0.002482601803
  UCCSD pair energy                    -0.360918661106
  UCCSD correlation energy             -0.363401262909
  Triples (T) contribution             -0.005221413021
  Total correlation energy             -0.368622675930
 
  RHF-UCCSD energy                    -81.311128975576
  RHF-UCCSD[T] energy                 -81.316346437545
  RHF-UCCSD-T energy                  -81.316345175338
 !RHF-UCCSD(T) energy                 -81.316350388597

 Program statistics:

 Available memory in ccsd:               511999552
 Min. memory needed in ccsd:                494356
 Max. memory used in ccsd:                  653655
 Max. memory used in cckext:                538944 ( 8 integral passes)
 Max. memory used in cckint:               1026866 ( 1 integral passes)



 **********************************************************************************************************************************
 DATASETS  * FILE   NREC   LENGTH (MB)   RECORD NAMES
              1      21       53.33       500      610      700      900      950      970     1000      129      960     1100   
                                          VAR    BASINP    GEOM    SYMINP    ZMAT    AOBASIS   BASIS     P2S    ABASIS      S 
                                         1400     1410     1420     1200     1210     1080     1600     1650     1300     1700   
                                           T        V       ECP      H0       H01     AOSYM     SMH    MOLCAS    ERIS     OPER   
                                         1380   
                                         JKOP   

              2       7        9.53       200      700     1000      520     4202     5202     2101   
                                        OPTIONS   GEOM     BASIS   MCVARS     RHF     MCSCF     RHF  

 PROGRAMS   *        TOTAL  UCCSD(T)       RHF     MULTI       RHF       INT
 CPU TIMES  *         9.94      4.66      0.09      0.58      0.48      3.98
 REAL TIME  *        11.96 SEC
 DISK USED  *       188.07 MB      
 **********************************************************************************************************************************
 SETTING CCSD(1)        =       -81.31635039  AU                              

 DO I                   =         2.00000000   

 Running procedure=IP1

1PROGRAM * RHF-SCF (CLOSED SHELL)       Authors: W. Meyer, H.-J. Werner


 NUMBER OF ELECTRONS:       5+    5-    SPACE SYMMETRY=1    SPIN SYMMETRY: Singlet 
 CONVERGENCE THRESHOLDS:    1.00E-05 (Density)    1.00E-07 (Energy)
 MAX. NUMBER OF ITERATIONS:       60
 INTERPOLATION TYPE:            DIIS
 INTERPOLATION STEPS:              2 (START)      1 (STEP)
 LEVEL SHIFTS:                  0.00 (CLOSED)  0.00 (OPEN) 



 Orbital guess generated from atomic densities. Full valence occupancy:    1   1   1   0   1   0   0   0


 Molecular orbital dump at record        2102.2

 ITERATION    DDIFF          GRAD             ENERGY        2-EL.EN.            DIPOLE MOMENTS         DIIS   ORB.
    1      0.000D+00      0.000D+00       -72.27402881    131.785266    0.00000    0.00000    0.00000    0    start
    2      0.000D+00      0.482D+00       -79.80016532     83.609448    0.00000    0.00000    0.00000    1    diag
    3      0.212D+02      0.150D+00       -80.73809554     95.550305    0.00000    0.00000    0.00000    2    diag
    4      0.176D+01      0.143D-01       -80.74581541     95.219221    0.00000    0.00000    0.00000    3    diag
    5      0.209D+00      0.140D-02       -80.74597730     95.180423    0.00000    0.00000    0.00000    4    diag
    6      0.227D-01      0.833D-04       -80.74598062     95.187091    0.00000    0.00000    0.00000    5    diag
    7      0.129D-02      0.903D-05       -80.74598067     95.188342    0.00000    0.00000    0.00000    6    diag
    8      0.166D-03      0.109D-05       -80.74598067     95.188417    0.00000    0.00000    0.00000    7    diag
    9      0.297D-04      0.559D-07       -80.74598067     95.188425    0.00000    0.00000    0.00000    8    diag
   10      0.180D-05      0.235D-08       -80.74598067     95.188425    0.00000    0.00000    0.00000    0    orth

 Final occupancy:   2   1   1   0   1   0   0   0

 !RHF STATE 1.1 Energy                -80.745980671271
 Nuclear energy                         0.00000000
 One-electron energy                 -128.34019310
 Two-electron energy                   47.59421243
 Virial quotient                       -1.29144665
 !RHF STATE 1.1 Dipole moment           0.00000000     0.00000000     0.00000000
 Dipole moment /Debye                   0.00000000     0.00000000     0.00000000

 Orbital energies:

         1.1          2.1          3.1          4.1
     -5.194890    -0.653145    -0.095877    -0.049982

         1.2          2.2          3.2
     -3.575950    -0.194856    -0.064837

         1.3          2.3          3.3
     -3.575950    -0.194856    -0.064837

         1.4          2.4
     -0.049982     0.070387

         1.5          2.5          3.5
     -3.575950    -0.194856    -0.064837

         1.6          2.6
     -0.049982     0.070387

         1.7          2.7
     -0.049982     0.070387

         1.8          2.8
      0.078475     0.479581

 HOMO      2.1    -0.653145 =     -17.7730eV
 LUMO      2.2    -0.194856 =      -5.3023eV
 LUMO-HOMO         0.458290 =      12.4707eV


 **********************************************************************************************************************************
 DATASETS  * FILE   NREC   LENGTH (MB)   RECORD NAMES
              1      21       53.33       500      610      700      900      950      970     1000      129      960     1100   
                                          VAR    BASINP    GEOM    SYMINP    ZMAT    AOBASIS   BASIS     P2S    ABASIS      S 
                                         1400     1410     1420     1200     1210     1080     1600     1650     1300     1700   
                                           T        V       ECP      H0       H01     AOSYM     SMH    MOLCAS    ERIS     OPER   
                                         1380   
                                         JKOP   

              2       8       12.16       200      700     1000      520     4202     5202     2101     2102   
                                        OPTIONS   GEOM     BASIS   MCVARS     RHF     MCSCF     RHF      RHF  

 PROGRAMS   *        TOTAL       RHF  UCCSD(T)       RHF     MULTI       RHF       INT
 CPU TIMES  *        10.44      0.49      4.66      0.09      0.58      0.48      3.98
 REAL TIME  *        12.60 SEC
 DISK USED  *       188.07 MB      
 **********************************************************************************************************************************
 SETTING SCF(2)         =       -80.74598067  AU                              
 SETTING _CC_NORM_MAX   =         2.00000000                                  


1PROGRAM * CCSD (Unrestricted open-shell coupled cluster)     Authors: C. Hampel, H.-J. Werner, 1991, M. Deegan, P.J. Knowles, 1992


 Convergence thresholds:  THRVAR = 1.00D-08  THRDEN = 1.00D-06

 CCSD(T)     terms to be evaluated (factor= 1.000)


 Number of closed-shell orbitals:   5 (   2   1   1   0   1   0   0   0 )
 Number of external orbitals:     157 (  41  24  24  13  24  13  13   5 )

 Memory could be reduced to 6.78 Mwords without degradation in triples

 Number of N-1 electron functions:              10
 Number of N-2 electron functions:              45
 Number of singly external CSFs:               308
 Number of doubly external CSFs:            116763
 Total number of CSFs:                      117071

 Molecular orbitals read from record     2102.2  Type=RHF/CANONICAL (state 1.1)

 Integral transformation finished. Total CPU:   0.19 sec, npass=  1  Memory used:   0.89 MW

 Starting RMP2 calculation

 ITER.      SQ.NORM     CORR.ENERGY   TOTAL ENERGY   ENERGY CHANGE        DEN1      VAR(S)    VAR(P)  DIIS     TIME
   1      1.03863883    -0.33296842   -81.07894909    -0.33296842    -0.00055649  0.20D-17  0.41D-03  1  1     0.20
   2      1.03967577    -0.33356780   -81.07954847    -0.00059938    -0.00000517  0.30D-19  0.43D-05  2  2     0.20
   3      1.03979176    -0.33362252   -81.07960319    -0.00005472    -0.00000001  0.76D-22  0.44D-08  3  3     0.20
   4      1.03979287    -0.33362267   -81.07960335    -0.00000016    -0.00000000  0.72D-24  0.80D-11  4  4     0.21

 Norm of t1 vector:      0.00000000      S-energy:    -0.00000000      T1 diagnostic:  0.00000000
 Norm of t2 vector:      0.19948149      P-energy:    -0.33362267
                                         Alpha-Beta:  -0.25948530
                                         Alpha-Alpha: -0.03706869
                                         Beta-Beta:   -0.03706869

 Spin contamination <S**2-Sz**2-Sz>     0.00000000
  Reference energy                    -80.745980671272
  RHF-RMP2 correlation energy          -0.333622674825
 !RHF-RMP2 energy                     -81.079603346097

 Starting UCCSD calculation

 ITER.      SQ.NORM     CORR.ENERGY   TOTAL ENERGY   ENERGY CHANGE        DEN1      VAR(S)    VAR(P)  DIIS     TIME
   1      1.04659725    -0.34052702   -81.08650769    -0.34052702    -0.00427409  0.35D-03  0.22D-02  1  1     0.47
   2      1.05603895    -0.34496684   -81.09094752    -0.00443983    -0.00067738  0.48D-04  0.48D-03  2  2     0.74
   3      1.06308325    -0.34698305   -81.09296372    -0.00201621    -0.00006699  0.24D-05  0.47D-04  3  3     1.01
   4      1.06609266    -0.34769118   -81.09367185    -0.00070813    -0.00000227  0.22D-06  0.10D-05  4  4     1.22
   5      1.06635854    -0.34772714   -81.09370781    -0.00003596    -0.00000010  0.29D-07  0.37D-07  5  5     1.44
   6      1.06638819    -0.34773014   -81.09371081    -0.00000300    -0.00000001  0.26D-08  0.17D-08  6  6     1.66
   7      1.06639142    -0.34773029   -81.09371096    -0.00000014    -0.00000000  0.42D-09  0.26D-09  6  1     1.88

 Norm of t1 vector:      0.03378526      S-energy:    -0.00000000      T1 diagnostic:  0.00755461
                                                                       D1 diagnostic:  0.02336894
 Norm of t2 vector:      0.25544075      P-energy:    -0.34773029
                                         Alpha-Beta:  -0.27543435
                                         Alpha-Alpha: -0.03614797
                                         Beta-Beta:   -0.03614797

 Doubles amplitudes (print threshold =  0.500E-01):

         I         J         SYM. A    SYM. B    A         B      T(IJ, AB) [Alpha-Beta]

         2         2         2         2         1         1     -0.09983726
         2         2         3         3         1         1     -0.09983726
         2         2         5         5         1         1     -0.09983726

 Spin contamination <S**2-Sz**2-Sz>     0.00000000

 Memory could be reduced to 6.65 Mwords without degradation in triples
 

 RESULTS
 =======

  Reference energy                    -80.745980671272
  UCCSD singles energy                 -0.000000000135
  UCCSD pair energy                    -0.347730285820
  UCCSD correlation energy             -0.347730285955
  Triples (T) contribution             -0.003969800472
  Total correlation energy             -0.351700086427
 
  RHF-UCCSD energy                    -81.093710957227
  RHF-UCCSD[T] energy                 -81.097729390982
  RHF-UCCSD-T energy                  -81.097666747383
 !RHF-UCCSD(T) energy                 -81.097680757699

 Program statistics:

 Available memory in ccsd:               511999650
 Min. memory needed in ccsd:                424236
 Max. memory used in ccsd:                  554617
 Max. memory used in cckext:                467824 ( 7 integral passes)
 Max. memory used in cckint:                887298 ( 1 integral passes)



 **********************************************************************************************************************************
 DATASETS  * FILE   NREC   LENGTH (MB)   RECORD NAMES
              1      21       53.33       500      610      700      900      950      970     1000      129      960     1100   
                                          VAR    BASINP    GEOM    SYMINP    ZMAT    AOBASIS   BASIS     P2S    ABASIS      S 
                                         1400     1410     1420     1200     1210     1080     1600     1650     1300     1700   
                                           T        V       ECP      H0       H01     AOSYM     SMH    MOLCAS    ERIS     OPER   
                                         1380   
                                         JKOP   

              2       8       12.16       200      700     1000      520     4202     5202     2101     2102   
                                        OPTIONS   GEOM     BASIS   MCVARS     RHF     MCSCF     RHF      RHF  

 PROGRAMS   *        TOTAL  UCCSD(T)       RHF  UCCSD(T)       RHF     MULTI       RHF       INT
 CPU TIMES  *        14.28      3.84      0.49      4.66      0.09      0.58      0.48      3.98
 REAL TIME  *        16.98 SEC
 DISK USED  *       188.07 MB      
 **********************************************************************************************************************************
 SETTING CCSD(2)        =       -81.09768076  AU                              

 DO I                   =         3.00000000   

 Running procedure=IP2

1PROGRAM * RHF-SCF (OPEN SHELL)       Authors: W. Meyer, H.-J. Werner


 NUMBER OF ELECTRONS:       5+    4-    SPACE SYMMETRY=1    SPIN SYMMETRY: Doublet 
 CONVERGENCE THRESHOLDS:    1.00E-05 (Density)    1.00E-07 (Energy)
 MAX. NUMBER OF ITERATIONS:       60
 INTERPOLATION TYPE:            DIIS
 INTERPOLATION STEPS:              2 (START)      1 (STEP)
 LEVEL SHIFTS:                 -0.30 (CLOSED)  0.00 (OPEN) 



 Orbital guess generated from atomic densities. Full valence occupancy:    1   1   1   0   1   0   0   0


 Molecular orbital dump at record        2103.2

 ITERATION    DDIFF          GRAD             ENERGY        2-EL.EN.            DIPOLE MOMENTS         DIIS   ORB.
    1      0.000D+00      0.000D+00       -73.53040485    115.182688    0.00000    0.00000    0.00000    0    start
    2      0.000D+00      0.433D+00       -79.78755649     82.151223    0.00000    0.00000    0.00000    1    diag,B
    3      0.109D+02      0.974D-01       -80.09923752     87.523881    0.00000    0.00000    0.00000    2    diag,B
    4      0.546D+00      0.450D-02       -80.10113130     87.423262    0.00000    0.00000    0.00000    3    diag,B
    5      0.131D+00      0.573D-03       -80.10118564     87.394572    0.00000    0.00000    0.00000    4    diag,B
    6      0.212D-01      0.544D-04       -80.10118703     87.389822    0.00000    0.00000    0.00000    5    diag,B
    7      0.164D-02      0.572D-05       -80.10118705     87.389193    0.00000    0.00000    0.00000    6    fixocc
    8      0.685D-04      0.419D-06       -80.10118705     87.389135    0.00000    0.00000    0.00000    7    diag,B
    9      0.817D-05      0.149D-07       -80.10118705     87.389134    0.00000    0.00000    0.00000    0    orth

 Final alpha occupancy:   2   1   1   0   1   0   0   0
 Final beta  occupancy:   1   1   1   0   1   0   0   0

 !RHF STATE 1.1 Energy                -80.101187053540
 Nuclear energy                         0.00000000
 One-electron energy                 -123.79575422
 Two-electron energy                   43.69456717
 Virial quotient                       -1.28696670
 !RHF STATE 1.1 Dipole moment           0.00000000     0.00000000     0.00000000
 Dipole moment /Debye                   0.00000000     0.00000000     0.00000000

 Orbital energies:

         1.1          2.1          3.1          4.1
     -5.631518    -1.032677    -0.267596    -0.245847

         1.2          2.2          3.2
     -4.018485    -0.507415    -0.205410

         1.3          2.3          3.3
     -4.018485    -0.507415    -0.205410

         1.4          2.4
     -0.245847    -0.123504

         1.5          2.5          3.5
     -4.018485    -0.507415    -0.205410

         1.6          2.6
     -0.245847    -0.123504

         1.7          2.7
     -0.245847    -0.123504

         1.8          2.8
     -0.092606     0.222851

 HOMO      2.1    -1.032677 =     -28.1006eV
 LUMO      2.2    -0.507415 =     -13.8075eV
 LUMO-HOMO         0.525262 =      14.2931eV


 **********************************************************************************************************************************
 DATASETS  * FILE   NREC   LENGTH (MB)   RECORD NAMES
              1      21       53.33       500      610      700      900      950      970     1000      129      960     1100   
                                          VAR    BASINP    GEOM    SYMINP    ZMAT    AOBASIS   BASIS     P2S    ABASIS      S 
                                         1400     1410     1420     1200     1210     1080     1600     1650     1300     1700   
                                           T        V       ECP      H0       H01     AOSYM     SMH    MOLCAS    ERIS     OPER   
                                         1380   
                                         JKOP   

              2       9       14.87       200      700     1000      520     4202     5202     2101     2102     2103   
                                        OPTIONS   GEOM     BASIS   MCVARS     RHF     MCSCF     RHF      RHF      RHF  

 PROGRAMS   *        TOTAL       RHF  UCCSD(T)       RHF  UCCSD(T)       RHF     MULTI       RHF       INT
 CPU TIMES  *        14.66      0.38      3.84      0.49      4.66      0.09      0.58      0.48      3.98
 REAL TIME  *        17.50 SEC
 DISK USED  *       188.07 MB      
 **********************************************************************************************************************************
 SETTING SCF(3)         =       -80.10118705  AU                              
 SETTING _CC_NORM_MAX   =         2.00000000                                  


1PROGRAM * CCSD (Unrestricted open-shell coupled cluster)     Authors: C. Hampel, H.-J. Werner, 1991, M. Deegan, P.J. Knowles, 1992


 Convergence thresholds:  THRVAR = 1.00D-08  THRDEN = 1.00D-06

 CCSD(T)     terms to be evaluated (factor= 1.000)


 Number of closed-shell orbitals:   4 (   1   1   1   0   1   0   0   0 )
 Number of active  orbitals:        1 (   1   0   0   0   0   0   0   0 )
 Number of external orbitals:     157 (  41  24  24  13  24  13  13   5 )

 Memory could be reduced to 6.71 Mwords without degradation in triples

 Number of N-1 electron functions:               9
 Number of N-2 electron functions:              36
 Number of singly external CSFs:               270
 Number of doubly external CSFs:             93270
 Total number of CSFs:                       93540

 Molecular orbitals read from record     2103.2  Type=RHF/CANONICAL (state 1.1)

 Integral transformation finished. Total CPU:   0.17 sec, npass=  1  Memory used:   0.89 MW

 Starting RMP2 calculation

 ITER.      SQ.NORM     CORR.ENERGY   TOTAL ENERGY   ENERGY CHANGE        DEN1      VAR(S)    VAR(P)  DIIS     TIME
   1      1.01494514    -0.29604527   -80.39723232    -0.29604527    -0.00003613  0.15D-07  0.32D-05  1  1     0.18
   2      1.01495177    -0.29608188   -80.39726893    -0.00003662    -0.00000000  0.11D-10  0.52D-09  2  2     0.18
   3      1.01495182    -0.29608202   -80.39726907    -0.00000014    -0.00000000  0.16D-13  0.90D-13  3  3     0.18

 Norm of t1 vector:      0.00400437      S-energy:    -0.00008583      T1 diagnostic:  0.00000998
 Norm of t2 vector:      0.12221207      P-energy:    -0.29599618
                                         Alpha-Beta:  -0.22577826
                                         Alpha-Alpha: -0.03773656
                                         Beta-Beta:   -0.03248136

 Spin contamination <S**2-Sz**2-Sz>     0.00002103
  Reference energy                    -80.101187053540
  RHF-RMP2 correlation energy          -0.296082019461
 !RHF-RMP2 energy                     -80.397269073001

 Starting UCCSD calculation

 ITER.      SQ.NORM     CORR.ENERGY   TOTAL ENERGY   ENERGY CHANGE        DEN1      VAR(S)    VAR(P)  DIIS     TIME
   1      1.01572271    -0.30194944   -80.40313649    -0.30194944    -0.00129215  0.80D-04  0.58D-04  1  1     0.42
   2      1.01603497    -0.30326974   -80.40445680    -0.00132031    -0.00002598  0.76D-05  0.15D-05  2  2     0.65
   3      1.01610134    -0.30337075   -80.40455780    -0.00010101    -0.00000139  0.90D-06  0.23D-07  3  3     0.87
   4      1.01612021    -0.30338850   -80.40457555    -0.00001775    -0.00000007  0.50D-07  0.11D-08  4  4     1.10
   5      1.01612389    -0.30339034   -80.40457740    -0.00000184    -0.00000000  0.11D-08  0.47D-10  5  5     1.32
   6      1.01612430    -0.30339057   -80.40457763    -0.00000023    -0.00000000  0.70D-10  0.21D-11  6  6     1.53

 Norm of t1 vector:      0.01473832      S-energy:    -0.00009449      T1 diagnostic:  0.00330460
                                                                       D1 diagnostic:  0.00872454
 Norm of t2 vector:      0.12612330      P-energy:    -0.30329609
                                         Alpha-Beta:  -0.23424466
                                         Alpha-Alpha: -0.03734840
                                         Beta-Beta:   -0.03170302

 Spin contamination <S**2-Sz**2-Sz>     0.00005195

 Memory could be reduced to 6.70 Mwords without degradation in triples
 

 RESULTS
 =======

  Reference energy                    -80.101187053540
  UCCSD singles energy                 -0.000094485269
  UCCSD pair energy                    -0.303296088405
  UCCSD correlation energy             -0.303390573675
  Triples (T) contribution             -0.002381927850
  Total correlation energy             -0.305772501525
 
  RHF-UCCSD energy                    -80.404577627215
  RHF-UCCSD[T] energy                 -80.406981006939
  RHF-UCCSD-T energy                  -80.406948777263
 !RHF-UCCSD(T) energy                 -80.406959555065

 Program statistics:

 Available memory in ccsd:               511999650
 Min. memory needed in ccsd:                365067
 Max. memory used in ccsd:                  465227
 Max. memory used in cckext:                399275 ( 6 integral passes)
 Max. memory used in cckint:                888734 ( 1 integral passes)



 **********************************************************************************************************************************
 DATASETS  * FILE   NREC   LENGTH (MB)   RECORD NAMES
              1      21       53.33       500      610      700      900      950      970     1000      129      960     1100   
                                          VAR    BASINP    GEOM    SYMINP    ZMAT    AOBASIS   BASIS     P2S    ABASIS      S 
                                         1400     1410     1420     1200     1210     1080     1600     1650     1300     1700   
                                           T        V       ECP      H0       H01     AOSYM     SMH    MOLCAS    ERIS     OPER   
                                         1380   
                                         JKOP   

              2       9       14.87       200      700     1000      520     4202     5202     2101     2102     2103   
                                        OPTIONS   GEOM     BASIS   MCVARS     RHF     MCSCF     RHF      RHF      RHF  

 PROGRAMS   *        TOTAL  UCCSD(T)       RHF  UCCSD(T)       RHF  UCCSD(T)       RHF     MULTI       RHF       INT
 CPU TIMES  *        17.49      2.83      0.38      3.84      0.49      4.66      0.09      0.58      0.48      3.98
 REAL TIME  *        20.83 SEC
 DISK USED  *       188.07 MB      
 **********************************************************************************************************************************
 SETTING CCSD(3)        =       -80.40695956  AU                              

 DO I                   =         4.00000000   

 Running procedure=IP3

1PROGRAM * RHF-SCF (CLOSED SHELL)       Authors: W. Meyer, H.-J. Werner


 NUMBER OF ELECTRONS:       4+    4-    SPACE SYMMETRY=1    SPIN SYMMETRY: Singlet 
 CONVERGENCE THRESHOLDS:    1.00E-05 (Density)    1.00E-07 (Energy)
 MAX. NUMBER OF ITERATIONS:       60
 INTERPOLATION TYPE:            DIIS
 INTERPOLATION STEPS:              2 (START)      1 (STEP)
 LEVEL SHIFTS:                  0.00 (CLOSED)  0.00 (OPEN) 



 Orbital guess generated from atomic densities. Full valence occupancy:    1   1   1   0   1   0   0   0


 Molecular orbital dump at record        2104.2

 ITERATION    DDIFF          GRAD             ENERGY        2-EL.EN.            DIPOLE MOMENTS         DIIS   ORB.
    1      0.000D+00      0.000D+00       -74.04001762    100.073637    0.00000    0.00000    0.00000    0    start
    2      0.000D+00      0.496D+00       -78.82011586     74.624131    0.00000    0.00000    0.00000    1    diag
    3      0.230D+01      0.105D+00       -79.06869097     79.421479    0.00000    0.00000    0.00000    2    diag
    4      0.387D+00      0.485D-02       -79.06916309     79.264462    0.00000    0.00000    0.00000    3    diag
    5      0.612D-01      0.188D-03       -79.06916455     79.266549    0.00000    0.00000    0.00000    4    diag
    6      0.604D-02      0.697D-05       -79.06916455     79.266560    0.00000    0.00000    0.00000    5    diag
    7      0.974D-04      0.258D-06       -79.06916455     79.266554    0.00000    0.00000    0.00000    6    diag
    8      0.123D-04      0.137D-07       -79.06916455     79.266555    0.00000    0.00000    0.00000    7    diag
    9      0.520D-07      0.350D-09       -79.06916455     79.266555    0.00000    0.00000    0.00000    0    orth

 Final occupancy:   1   1   1   0   1   0   0   0

 !RHF STATE 1.1 Energy                -79.069164550888
 Nuclear energy                         0.00000000
 One-electron energy                 -118.70244182
 Two-electron energy                   39.63327727
 Virial quotient                       -1.27975556
 !RHF STATE 1.1 Dipole moment           0.00000000     0.00000000     0.00000000
 Dipole moment /Debye                   0.00000000     0.00000000     0.00000000

 Orbital energies:

         1.1          2.1          3.1
     -6.132510    -1.031407    -0.511419

         1.2          2.2          3.2
     -4.528478    -0.790098    -0.386618

         1.3          2.3          3.3
     -4.528478    -0.790098    -0.386618

         1.4          2.4
     -0.511419    -0.286407

         1.5          2.5          3.5
     -4.528478    -0.790098    -0.386618

         1.6          2.6
     -0.511419    -0.286407

         1.7          2.7
     -0.511419    -0.286407

         1.8          2.8
     -0.277249    -0.025640

 HOMO      1.2    -4.528478 =    -123.2261eV
 LUMO      2.1    -1.031407 =     -28.0660eV
 LUMO-HOMO         3.497071 =      95.1601eV


 **********************************************************************************************************************************
 DATASETS  * FILE   NREC   LENGTH (MB)   RECORD NAMES
              1      21       53.33       500      610      700      900      950      970     1000      129      960     1100   
                                          VAR    BASINP    GEOM    SYMINP    ZMAT    AOBASIS   BASIS     P2S    ABASIS      S 
                                         1400     1410     1420     1200     1210     1080     1600     1650     1300     1700   
                                           T        V       ECP      H0       H01     AOSYM     SMH    MOLCAS    ERIS     OPER   
                                         1380   
                                         JKOP   

              2      10       17.51       200      700     1000      520     4202     5202     2101     2102     2103     2104   
                                        OPTIONS   GEOM     BASIS   MCVARS     RHF     MCSCF     RHF      RHF      RHF      RHF  

 PROGRAMS   *        TOTAL       RHF  UCCSD(T)       RHF  UCCSD(T)       RHF  UCCSD(T)       RHF     MULTI       RHF       INT
 CPU TIMES  *        17.99      0.50      2.83      0.38      3.84      0.49      4.66      0.09      0.58      0.48      3.98
 REAL TIME  *        21.64 SEC
 DISK USED  *       188.07 MB      
 **********************************************************************************************************************************
 SETTING SCF(4)         =       -79.06916455  AU                              
 SETTING _CC_NORM_MAX   =         2.00000000                                  


1PROGRAM * CCSD (Unrestricted open-shell coupled cluster)     Authors: C. Hampel, H.-J. Werner, 1991, M. Deegan, P.J. Knowles, 1992


 Convergence thresholds:  THRVAR = 1.00D-08  THRDEN = 1.00D-06

 CCSD(T)     terms to be evaluated (factor= 1.000)


 Number of closed-shell orbitals:   4 (   1   1   1   0   1   0   0   0 )
 Number of external orbitals:     158 (  42  24  24  13  24  13  13   5 )

 Memory could be reduced to 6.14 Mwords without degradation in triples

 Number of N-1 electron functions:               8
 Number of N-2 electron functions:              28
 Number of singly external CSFs:               228
 Number of doubly external CSFs:             72040
 Total number of CSFs:                       72268

 Molecular orbitals read from record     2104.2  Type=RHF/CANONICAL (state 1.1)

 Integral transformation finished. Total CPU:   0.21 sec, npass=  1  Memory used:   0.79 MW

 Starting RMP2 calculation

 ITER.      SQ.NORM     CORR.ENERGY   TOTAL ENERGY   ENERGY CHANGE        DEN1      VAR(S)    VAR(P)  DIIS     TIME
   1      1.01339364    -0.28448078   -79.35364534    -0.28448078    -0.00003178  0.11D-22  0.23D-05  1  1     0.22
   2      1.01339841    -0.28451296   -79.35367751    -0.00003217    -0.00000000  0.36D-26  0.10D-09  2  2     0.22
   3      1.01339843    -0.28451304   -79.35367759    -0.00000008    -0.00000000  0.12D-29  0.49D-14  3  3     0.23

 Norm of t1 vector:      0.00000000      S-energy:    -0.00000000      T1 diagnostic:  0.00000000
 Norm of t2 vector:      0.11575158      P-energy:    -0.28451304
                                         Alpha-Beta:  -0.21972197
                                         Alpha-Alpha: -0.03239553
                                         Beta-Beta:   -0.03239553

 Spin contamination <S**2-Sz**2-Sz>     0.00000000
  Reference energy                    -79.069164550888
  RHF-RMP2 correlation energy          -0.284513035682
 !RHF-RMP2 energy                     -79.353677586570

 Starting UCCSD calculation

 ITER.      SQ.NORM     CORR.ENERGY   TOTAL ENERGY   ENERGY CHANGE        DEN1      VAR(S)    VAR(P)  DIIS     TIME
   1      1.01399394    -0.29042379   -79.35958834    -0.29042379    -0.00107735  0.18D-04  0.43D-04  1  1     0.48
   2      1.01415774    -0.29152701   -79.36069156    -0.00110322    -0.00001066  0.28D-06  0.64D-06  2  2     0.74
   3      1.01417320    -0.29157844   -79.36074299    -0.00005143    -0.00000016  0.10D-07  0.68D-08  3  3     1.00
   4      1.01417486    -0.29158212   -79.36074667    -0.00000368    -0.00000000  0.52D-10  0.92D-10  4  4     1.23
   5      1.01417494    -0.29158227   -79.36074682    -0.00000015    -0.00000000  0.19D-11  0.15D-11  5  5     1.42

 Norm of t1 vector:      0.00516843      S-energy:    -0.00000000      T1 diagnostic:  0.00129211
                                                                       D1 diagnostic:  0.00203973
 Norm of t2 vector:      0.11894633      P-energy:    -0.29158227
                                         Alpha-Beta:  -0.22811977
                                         Alpha-Alpha: -0.03173125
                                         Beta-Beta:   -0.03173125

 Spin contamination <S**2-Sz**2-Sz>     0.00000000

 Memory could be reduced to 6.00 Mwords without degradation in triples
 

 RESULTS
 =======

  Reference energy                    -79.069164550888
  UCCSD singles energy                 -0.000000000001
  UCCSD pair energy                    -0.291582267767
  UCCSD correlation energy             -0.291582267768
  Triples (T) contribution             -0.002040322030
  Total correlation energy             -0.293622589798
 
  RHF-UCCSD energy                    -79.360746818656
  RHF-UCCSD[T] energy                 -79.362801950290
  RHF-UCCSD-T energy                  -79.362779312206
 !RHF-UCCSD(T) energy                 -79.362787140686

 Program statistics:

 Available memory in ccsd:               511999732
 Min. memory needed in ccsd:                302470
 Max. memory used in ccsd:                  378390
 Max. memory used in cckext:                337805 ( 5 integral passes)
 Max. memory used in cckint:                787419 ( 1 integral passes)



 **********************************************************************************************************************************
 DATASETS  * FILE   NREC   LENGTH (MB)   RECORD NAMES
              1      21       53.33       500      610      700      900      950      970     1000      129      960     1100   
                                          VAR    BASINP    GEOM    SYMINP    ZMAT    AOBASIS   BASIS     P2S    ABASIS      S 
                                         1400     1410     1420     1200     1210     1080     1600     1650     1300     1700   
                                           T        V       ECP      H0       H01     AOSYM     SMH    MOLCAS    ERIS     OPER   
                                         1380   
                                         JKOP   

              2      10       17.51       200      700     1000      520     4202     5202     2101     2102     2103     2104   
                                        OPTIONS   GEOM     BASIS   MCVARS     RHF     MCSCF     RHF      RHF      RHF      RHF  

 PROGRAMS   *        TOTAL  UCCSD(T)       RHF  UCCSD(T)       RHF  UCCSD(T)       RHF  UCCSD(T)       RHF     MULTI       RHF
 CPU TIMES  *        20.50      2.51      0.50      2.83      0.38      3.84      0.49      4.66      0.09      0.58      0.48
 REAL TIME  *        24.62 SEC
 DISK USED  *       188.07 MB      
 **********************************************************************************************************************************
 SETTING CCSD(4)        =       -79.36278714  AU                              

 DO I                   =         5.00000000   

 Running procedure=EA

1PROGRAM * RHF-SCF (OPEN SHELL)       Authors: W. Meyer, H.-J. Werner


 NUMBER OF ELECTRONS:       7+    5-    SPACE SYMMETRY=4    SPIN SYMMETRY: Triplet 
 CONVERGENCE THRESHOLDS:    1.00E-05 (Density)    1.00E-07 (Energy)
 MAX. NUMBER OF ITERATIONS:       60
 INTERPOLATION TYPE:            DIIS
 INTERPOLATION STEPS:              2 (START)      1 (STEP)
 LEVEL SHIFTS:                 -0.30 (CLOSED)  0.00 (OPEN) 


 Singly occupied orbitals:      2.2       2.3
 Orbital guess generated from atomic densities. Full valence occupancy:    1   1   1   0   1   0   0   0


 Molecular orbital dump at record        4202.2

 ITERATION    DDIFF          GRAD             ENERGY        2-EL.EN.            DIPOLE MOMENTS         DIIS   ORB.
    1      0.000D+00      0.000D+00       -66.78365057    169.481431    0.00000    0.00000    0.00000    0    start
    2      0.000D+00      0.442D+00       -76.23999628     68.669108    0.00000    0.00000    0.00000    1    diag,B
    3      0.191D+02      0.239D+00       -80.70894697    113.297206    0.00000    0.00000    0.00000    2    diag,B
    4      0.529D+01      0.335D-01       -80.93024076    106.940504    0.00000    0.00000    0.00000    3    diag,B
    5      0.789D+00      0.537D-02       -80.94698464    105.281374    0.00000    0.00000    0.00000    4    diag,B
    6      0.154D+00      0.144D-02       -80.94868925    105.196614    0.00000    0.00000    0.00000    5    diag,B
    7      0.316D-01      0.620D-03       -80.94923612    105.247487    0.00000    0.00000    0.00000    6    fixocc
    8      0.240D-01      0.170D-03       -80.94927389    105.248128    0.00000    0.00000    0.00000    7    diag,B
    9      0.436D-02      0.562D-04       -80.94927872    105.246505    0.00000    0.00000    0.00000    8    diag,B
   10      0.139D-02      0.230D-04       -80.94927986    105.243737    0.00000    0.00000    0.00000    9    orth
   11      0.720D-03      0.425D-05       -80.94927991    105.242215    0.00000    0.00000    0.00000    9    diag,B
   12      0.940D-04      0.106D-05       -80.94927991    105.241847    0.00000    0.00000    0.00000    9    diag,B
   13      0.182D-04      0.156D-06       -80.94927991    105.241843    0.00000    0.00000    0.00000    9    diag,B
   14      0.486D-05      0.672D-07       -80.94927991    105.241842    0.00000    0.00000    0.00000    0    orth

 Final alpha occupancy:   2   2   2   0   1   0   0   0
 Final beta  occupancy:   2   1   1   0   1   0   0   0

 !RHF STATE 1.4 Energy                -80.949279909453
 Nuclear energy                         0.00000000
 One-electron energy                 -133.57020071
 Two-electron energy                   52.62092080
 Virial quotient                       -1.28611940
 !RHF STATE 1.4 Dipole moment           0.00000000     0.00000000     0.00000000
 Dipole moment /Debye                   0.00000000     0.00000000     0.00000000

 Orbital energies:

         1.1          2.1          3.1          4.1
     -4.695316    -0.209684     0.141728     0.194336

         1.2          2.2          3.2          4.2
     -3.079365    -0.019998     0.130572     0.347849

         1.3          2.3          3.3          4.3
     -3.079365    -0.019998     0.130572     0.347849

         1.4          2.4
      0.194336     0.399507

         1.5          2.5          3.5
     -3.080451     0.114146     0.182448

         1.6          2.6
      0.195566     0.404742

         1.7          2.7
      0.195566     0.404742

         1.8          2.8
      0.372666     0.871364

 HOMO      2.2    -0.019998 =      -0.5442eV
 LUMO      2.5     0.114146 =       3.1061eV
 LUMO-HOMO         0.134144 =       3.6503eV


 **********************************************************************************************************************************
 DATASETS  * FILE   NREC   LENGTH (MB)   RECORD NAMES
              1      21       53.33       500      610      700      900      950      970     1000      129      960     1100   
                                          VAR    BASINP    GEOM    SYMINP    ZMAT    AOBASIS   BASIS     P2S    ABASIS      S 
                                         1400     1410     1420     1200     1210     1080     1600     1650     1300     1700   
                                           T        V       ECP      H0       H01     AOSYM     SMH    MOLCAS    ERIS     OPER   
                                         1380   
                                         JKOP   

              2      10       17.51       200      700     1000      520     4202     5202     2101     2102     2103     2104   
                                        OPTIONS   GEOM     BASIS   MCVARS     RHF     MCSCF     RHF      RHF      RHF      RHF  

 PROGRAMS   *        TOTAL       RHF  UCCSD(T)       RHF  UCCSD(T)       RHF  UCCSD(T)       RHF  UCCSD(T)       RHF     MULTI
 CPU TIMES  *        21.05      0.55      2.51      0.50      2.83      0.38      3.84      0.49      4.66      0.09      0.58
 REAL TIME  *        25.44 SEC
 DISK USED  *       188.07 MB      
 **********************************************************************************************************************************

1PROGRAM * MULTI (Direct Multiconfiguration SCF)       Authors: P.J. Knowles, H.-J. Werner (1984)     S.T. Elbert (1988)


 Number of closed-shell orbitals:   5 (   2   1   1   0   1   0   0   0 )
 Number of active  orbitals:        3 (   0   1   1   0   1   0   0   0 )
 Number of external orbitals:     154 (  41  23  23  13  23  13  13   5 )

 State symmetry 1

 Number of electrons:     2    Spin symmetry=Triplet   Space symmetry=4
 Number of states:        1
 Number of CSFs:          1   (1 determinants, 3 intermediate states)

 State symmetry 2

 Number of electrons:     2    Spin symmetry=Triplet   Space symmetry=6
 Number of states:        1
 Number of CSFs:          1   (1 determinants, 3 intermediate states)

 State symmetry 3

 Number of electrons:     2    Spin symmetry=Triplet   Space symmetry=7
 Number of states:        1
 Number of CSFs:          1   (1 determinants, 3 intermediate states)

 Molecular orbitals read from record     4202.2  Type=RHF/CANONICAL (state 1.4)
 *** IN SYMMETRY 1 ORBITAL  1 SYMMETRY CONTAMINATION OF 0.153D-03 HAS BEEN REMOVED
 *** IN SYMMETRY 1 ORBITAL  2 SYMMETRY CONTAMINATION OF 0.487D-02 HAS BEEN REMOVED

 EXTRA SYMMETRY OF MOS IN SYMMETRY 1:   1 1 1 3 2 1 3 2 2 3   4 6 5 1 2 3 4 6 5 1   2 3 1 2 3 1 4 6 5 1   2 3 1 1 1 1 1 1 1 1
                                        1 1 1
 *** IN SYMMETRY 2 ORBITAL  1 SYMMETRY CONTAMINATION OF 0.111D-03 HAS BEEN REMOVED
 *** IN SYMMETRY 2 ORBITAL  2 SYMMETRY CONTAMINATION OF 0.142D-03 HAS BEEN REMOVED
 EXTRA SYMMETRY OF MOS IN SYMMETRY 2:   1 1 1 1 1 3 2 3 1 2   3 1 1 2 3 1 1 2 3 1   1 1 1 1 2
 *** IN SYMMETRY 3 ORBITAL  1 SYMMETRY CONTAMINATION OF 0.111D-03 HAS BEEN REMOVED
 *** IN SYMMETRY 3 ORBITAL  2 SYMMETRY CONTAMINATION OF 0.142D-03 HAS BEEN REMOVED
 EXTRA SYMMETRY OF MOS IN SYMMETRY 3:   1 1 1 1 1 3 2 3 1 2   3 1 1 2 3 1 1 2 3 1   1 1 1 1 2
 EXTRA SYMMETRY OF MOS IN SYMMETRY 4:   1 1 1 2 3 1 2 3 1 1   2 3 1
 *** IN SYMMETRY 5 ORBITAL  1 SYMMETRY CONTAMINATION OF 0.135D-03 HAS BEEN REMOVED
 *** IN SYMMETRY 5 ORBITAL  2 SYMMETRY CONTAMINATION OF 0.419D-03 HAS BEEN REMOVED
 EXTRA SYMMETRY OF MOS IN SYMMETRY 5:   1 1 1 1 2 3 2 3 1 2   3 1 1 2 3 1 1 2 3 1   1 1 1 1 1
 EXTRA SYMMETRY OF MOS IN SYMMETRY 6:   1 1 1 2 3 1 2 3 1 1   2 3 1
 EXTRA SYMMETRY OF MOS IN SYMMETRY 7:   1 1 1 2 3 1 2 3 1 1   2 3 1

 Wavefunction dump at record             5202.2

 Convergence thresholds  0.10E-01 (gradient)  0.10E-05 (energy)  0.10E-02 (step length)

 Weight factors for state symmetry  1:    0.33333
 Weight factors for state symmetry  2:    0.33333
 Weight factors for state symmetry  3:    0.33333

 Number of orbital rotations:      223   (     3 Core/Active    151 Core/Virtual   0 Active/Active     69 Active/Virtual)
 Total number of variables:        226


 ITER. MIC  NCI  NEG     ENERGY(VAR)     ENERGY(PROJ)   ENERGY CHANGE     GRAD(0)  GRAD(ORB)   GRAD(CI)     STEP       TIME

   1   37   21    0     -80.92418131     -80.95129864   -0.02711733    0.05360526 0.00000000 0.00000000  0.82D+00      0.18
   2   20   24    0     -80.94746102     -80.94912210   -0.00166108    0.03092592 0.00000000 0.00000000  0.13D+00      0.37
   3   21   24    0     -80.94916209     -80.94916476   -0.00000267    0.00104475 0.00000000 0.00000000  0.60D-02      0.55
   4   22   12    0     -80.94916476     -80.94916476   -0.00000000    0.00000175 0.00000000 0.00000000  0.11D-04      0.70

 ** WVFN ****  CONVERGENCE REACHED, FINAL GRADIENT:  0.66D-07



 Results for state 1.4
 =====================

 !MCSCF STATE 1.4 Energy              -80.949164761471
 Nuclear energy                         0.00000000
 Kinetic energy                        62.94052554
 One electron energy                 -133.56943087
 Two electron energy                   52.62026611
 Virial ratio                           2.28612153

 !MCSCF STATE 1.4 Dipole moment         0.00000000     0.00000000     0.00000000
 Dipole moment /Debye                   0.00000000     0.00000000     0.00000000



 Results for state 1.6
 =====================

 !MCSCF STATE 1.6 Energy              -80.949164761400
 Nuclear energy                         0.00000000
 Kinetic energy                        62.94052557
 One electron energy                 -133.56943089
 Two electron energy                   52.62026613
 Virial ratio                           2.28612153

 !MCSCF STATE 1.6 Dipole moment         0.00000000     0.00000000     0.00000000
 Dipole moment /Debye                   0.00000000     0.00000000     0.00000000



 Results for state 1.7
 =====================

 !MCSCF STATE 1.7 Energy              -80.949164761400
 Nuclear energy                         0.00000000
 Kinetic energy                        62.94052557
 One electron energy                 -133.56943089
 Two electron energy                   52.62026613
 Virial ratio                           2.28612153

 !MCSCF STATE 1.7 Dipole moment         0.00000000     0.00000000     0.00000000
 Dipole moment /Debye                   0.00000000     0.00000000     0.00000000

 State-averaged charge density matrix saved on record  5202.2 (density set 1)


 NATURAL ORBITALS (state averaged)
 =================================

   Orb     Occ        Energy       Coefficients

                                   1 1s      1 1s      1 1s      1 1s      1 1s      1 1s      1 1s      1 1s      1 1s      1 1s   
                                   1 1s      1 1s      1 1s      1 1s      1 1s      1 1s      1 1s      1 1s      1 1s      1 1s   
                                   1 3d0     1 3d2+    1 3d0     1 3d2+    1 3d0     1 3d2+    1 3d0     1 3d2+    1 3d0     1 3d2+ 
                                   1 3d0     1 3d2+    1 3d0     1 3d2+    1 5g0     1 5g4+    1 5g2+    1 5g0     1 5g4+    1 5g2+ 
                                   1 5g0     1 5g4+    1 5g2+ 

   1.1  2.00000    -4.695402    -0.000000  0.000000 -0.000003  0.000016 -0.000071  0.000289 -0.001124  0.005048 -0.013857 -0.347801
                                -2.575078  1.637296  0.349177  0.031323 -0.016063  0.006022  0.368537  2.782375 -1.254389 -0.001349
                                 0.000000  0.000000  0.000000  0.000000  0.000000  0.000000  0.000000  0.000000  0.000000  0.000000
                                 0.000000  0.000000  0.000000  0.000000  0.000000  0.000000  0.000000  0.000000  0.000000  0.000000
                                 0.000000  0.000000  0.000000

   2.1  2.00000    -0.209711     0.000000 -0.000000  0.000001 -0.000004  0.000019 -0.000076  0.000297 -0.001346  0.004494  0.081249
                                 0.572355 -0.416191 -0.234849  0.260655  0.530722  0.335114 -0.084752 -0.624437  0.273596  0.051843
                                 0.000000  0.000000  0.000000  0.000000  0.000000  0.000000  0.000000  0.000000  0.000000  0.000000
                                 0.000000  0.000000  0.000000  0.000000  0.000000  0.000000  0.000000  0.000000  0.000000  0.000000
                                 0.000000  0.000000  0.000000

                                   1 2px     1 2px     1 2px     1 2px     1 2px     1 2px     1 2px     1 2px     1 2px     1 2px  
                                   1 2px     1 2px     1 2px     1 2px     1 2px     1 4f1+    1 4f3+    1 4f1+    1 4f3+    1 4f1+ 
                                   1 4f3+    1 4f1+    1 4f3+    1 4f1+    1 4f3+ 

   1.2  2.00000    -3.079812    -0.000011  0.000099 -0.000417  0.042068  0.648782  2.143993 -0.961379  0.204767  0.018438 -0.001422
                                 0.000756 -0.467585 -1.794602  1.366578 -0.000147  0.000000  0.000000  0.000000  0.000000  0.000000
                                 0.000000  0.000000  0.000000  0.000000  0.000000

   2.2  0.66667     0.122425     0.000001 -0.000012  0.000047 -0.005819 -0.097874 -0.411188  0.229657 -0.024703  0.175434  0.389211
                                 0.417304  0.074406  0.362127 -0.296791  0.257056  0.000000  0.000000  0.000000  0.000000  0.000000
                                 0.000000  0.000000  0.000000  0.000000  0.000000

                                   1 2py     1 2py     1 2py     1 2py     1 2py     1 2py     1 2py     1 2py     1 2py     1 2py  
                                   1 2py     1 2py     1 2py     1 2py     1 2py     1 4f1-    1 4f3-    1 4f1-    1 4f3-    1 4f1- 
                                   1 4f3-    1 4f1-    1 4f3-    1 4f1-    1 4f3- 

   1.3  2.00000    -3.079812    -0.000011  0.000099 -0.000417  0.042068  0.648782  2.143993 -0.961379  0.204767  0.018438 -0.001422
                                 0.000756 -0.467585 -1.794602  1.366578 -0.000147  0.000000  0.000000  0.000000  0.000000  0.000000
                                 0.000000  0.000000  0.000000  0.000000  0.000000

   2.3  0.66667     0.122425     0.000001 -0.000012  0.000047 -0.005819 -0.097874 -0.411188  0.229657 -0.024703  0.175434  0.389211
                                 0.417304  0.074406  0.362127 -0.296791  0.257056  0.000000  0.000000  0.000000  0.000000  0.000000
                                 0.000000  0.000000  0.000000  0.000000  0.000000

                                   1 2pz     1 2pz     1 2pz     1 2pz     1 2pz     1 2pz     1 2pz     1 2pz     1 2pz     1 2pz  
                                   1 2pz     1 2pz     1 2pz     1 2pz     1 2pz     1 4f0     1 4f2+    1 4f0     1 4f2+    1 4f0  
                                   1 4f2+    1 4f0     1 4f2+    1 4f0     1 4f2+ 

   1.5  2.00000    -3.079812    -0.000011  0.000099 -0.000417  0.042068  0.648782  2.143993 -0.961379  0.204767  0.018438 -0.001422
                                 0.000756 -0.467585 -1.794602  1.366578 -0.000147  0.000000  0.000000  0.000000  0.000000  0.000000
                                 0.000000  0.000000  0.000000  0.000000  0.000000

   2.5  0.66667     0.122425     0.000001 -0.000012  0.000047 -0.005819 -0.097874 -0.411188  0.229657 -0.024703  0.175434  0.389211
                                 0.417304  0.074406  0.362127 -0.296791  0.257056  0.000000  0.000000  0.000000  0.000000  0.000000
                                 0.000000  0.000000  0.000000  0.000000  0.000000

 Total charge:  -9.000000000000
 

 EXTRA SYMMETRY OF MOS IN SYMMETRY 1:   1 1 1 3 2 1 3 2 3 2   5 4 6 1 3 2 5 6 4 1   3 2 1 2 3 1 4 6 5 1   2 3 1 1 1 1 1 1 1 1
                                        1 1 1
 EXTRA SYMMETRY OF MOS IN SYMMETRY 2:   1 1 1 1 3 2 3 2 1 3   2 1 1 2 3 1 1 2 3 1   1 1 1 1 1
 EXTRA SYMMETRY OF MOS IN SYMMETRY 3:   1 1 1 1 3 2 3 2 1 3   2 1 1 2 3 1 1 2 3 1   1 1 1 1 1
 EXTRA SYMMETRY OF MOS IN SYMMETRY 4:   1 1 1 3 2 1 3 2 1 1   2 3 1
 EXTRA SYMMETRY OF MOS IN SYMMETRY 5:   1 1 1 1 2 3 3 2 1 3   2 1 1 2 3 1 1 2 3 1   1 1 1 1 1
 EXTRA SYMMETRY OF MOS IN SYMMETRY 6:   1 1 1 3 2 1 3 2 1 1   2 3 1
 EXTRA SYMMETRY OF MOS IN SYMMETRY 7:   1 1 1 3 2 1 3 2 1 1   2 3 1

 Natural orbital dump (state averaged) at molpro section  5202.2    (Orbital set 2)


 CI vector for state symmetry 1
 ==============================

 a a 0           1.0000000

 TOTAL ENERGIES                       -80.94916476

 CI vector for state symmetry 2
 ==============================

 a 0 a           1.0000000

 TOTAL ENERGIES                       -80.94916476

 CI vector for state symmetry 3
 ==============================

 0 a a           1.0000000

 TOTAL ENERGIES                       -80.94916476



 **********************************************************************************************************************************
 DATASETS  * FILE   NREC   LENGTH (MB)   RECORD NAMES
              1      21       53.33       500      610      700      900      950      970     1000      129      960     1100   
                                          VAR    BASINP    GEOM    SYMINP    ZMAT    AOBASIS   BASIS     P2S    ABASIS      S 
                                         1400     1410     1420     1200     1210     1080     1600     1650     1300     1700   
                                           T        V       ECP      H0       H01     AOSYM     SMH    MOLCAS    ERIS     OPER   
                                         1380   
                                         JKOP   

              2      10       17.51       200      700     1000      520     4202     5202     2101     2102     2103     2104   
                                        OPTIONS   GEOM     BASIS   MCVARS     RHF     MCSCF     RHF      RHF      RHF      RHF  

 PROGRAMS   *        TOTAL     MULTI       RHF  UCCSD(T)       RHF  UCCSD(T)       RHF  UCCSD(T)       RHF  UCCSD(T)       RHF
 CPU TIMES  *        21.94      0.89      0.55      2.51      0.50      2.83      0.38      3.84      0.49      4.66      0.09
 REAL TIME  *        27.45 SEC
 DISK USED  *       188.07 MB      
 **********************************************************************************************************************************

1PROGRAM * RHF-SCF (OPEN SHELL)       Authors: W. Meyer, H.-J. Werner


 NUMBER OF ELECTRONS:       7+    5-    SPACE SYMMETRY=4    SPIN SYMMETRY: Triplet 
 CONVERGENCE THRESHOLDS:    1.00E-05 (Density)    1.00E-07 (Energy)
 MAX. NUMBER OF ITERATIONS:        0
 INTERPOLATION TYPE:            DIIS
 INTERPOLATION STEPS:              2 (START)      1 (STEP)
 LEVEL SHIFTS:                 -0.30 (CLOSED)  0.00 (OPEN) 


 Singly occupied orbitals:      2.2       2.3
 Molecular orbitals read from record     5202.2  Type=MCSCF/NATURAL  

 Molecular orbital dump at record        2106.2

 ITERATION    DDIFF          GRAD             ENERGY        2-EL.EN.            DIPOLE MOMENTS         DIIS   ORB.
    1      0.000D+00      0.000D+00       -80.94916476    105.240532    0.00000    0.00000    0.00000    0    start

 Final alpha occupancy:   2   2   2   0   1   0   0   0
 Final beta  occupancy:   2   1   1   0   1   0   0   0

 !RHF STATE 1.4 Energy                -80.949164761471
 Nuclear energy                         0.00000000
 One-electron energy                 -133.56943087
 Two-electron energy                   52.62026611
 Virial quotient                       -1.28612153
 !RHF STATE 1.4 Dipole moment           0.00000000     0.00000000     0.00000000
 Dipole moment /Debye                   0.00000000     0.00000000     0.00000000

 Orbital energies:

         1.1          2.1          3.1          4.1
     -4.695402    -0.209711     0.149451     0.202119

         1.2          2.2          3.2          4.2
     -3.079812     0.122425     0.139061     0.364982

         1.3          2.3          3.3          4.3
     -3.079812     0.122425     0.139061     0.364982

         1.4          2.4
      0.202119     0.421411

         1.5          2.5          3.5
     -3.079812     0.122425     0.139061

         1.6          2.6
      0.202119     0.421411

         1.7          2.7
      0.202119     0.421411

         1.8          2.8
      0.378691     0.882200

 HOMO      2.2     0.122425 =       3.3314eV
 LUMO      2.5     0.122425 =       3.3314eV
 LUMO-HOMO         0.000000 =       0.0000eV


 **********************************************************************************************************************************
 DATASETS  * FILE   NREC   LENGTH (MB)   RECORD NAMES
              1      21       53.33       500      610      700      900      950      970     1000      129      960     1100   
                                          VAR    BASINP    GEOM    SYMINP    ZMAT    AOBASIS   BASIS     P2S    ABASIS      S 
                                         1400     1410     1420     1200     1210     1080     1600     1650     1300     1700   
                                           T        V       ECP      H0       H01     AOSYM     SMH    MOLCAS    ERIS     OPER   
                                         1380   
                                         JKOP   

              2      11       20.21       200      700     1000      520     4202     5202     2101     2102     2103     2104   
                                        OPTIONS   GEOM     BASIS   MCVARS     RHF     MCSCF     RHF      RHF      RHF      RHF  
                                         2106   
                                          RHF  

 PROGRAMS   *        TOTAL       RHF     MULTI       RHF  UCCSD(T)       RHF  UCCSD(T)       RHF  UCCSD(T)       RHF  UCCSD(T)
 CPU TIMES  *        22.04      0.09      0.89      0.55      2.51      0.50      2.83      0.38      3.84      0.49      4.66
 REAL TIME  *        27.62 SEC
 DISK USED  *       188.07 MB      
 **********************************************************************************************************************************
 SETTING SCF(5)         =       -80.94916476  AU                              
 SETTING _CC_NORM_MAX   =         2.00000000                                  


1PROGRAM * CCSD (Unrestricted open-shell coupled cluster)     Authors: C. Hampel, H.-J. Werner, 1991, M. Deegan, P.J. Knowles, 1992


 Convergence thresholds:  THRVAR = 1.00D-08  THRDEN = 1.00D-06

 CCSD(T)     terms to be evaluated (factor= 1.000)


 Number of closed-shell orbitals:   5 (   2   1   1   0   1   0   0   0 )
 Number of active  orbitals:        2 (   0   1   1   0   0   0   0   0 )
 Number of external orbitals:     155 (  41  23  23  13  24  13  13   5 )

 Memory could be reduced to 7.70 Mwords without degradation in triples

 Number of N-1 electron functions:              12
 Number of N-2 electron functions:              66
 Number of singly external CSFs:               356
 Number of doubly external CSFs:            166679
 Total number of CSFs:                      167035

 Molecular orbitals read from record     2106.2  Type=RHF/CANONICAL (state 1.4)

 Integral transformation finished. Total CPU:   0.23 sec, npass=  1  Memory used:   1.17 MW

 Starting RMP2 calculation

 ITER.      SQ.NORM     CORR.ENERGY   TOTAL ENERGY   ENERGY CHANGE        DEN1      VAR(S)    VAR(P)  DIIS     TIME
   1      1.06606351    -0.35733405   -81.30649881    -0.35733405    -0.00110539  0.67D-04  0.10D-02  1  1     0.25
   2      1.06917525    -0.35858822   -81.30775298    -0.00125417    -0.00001947  0.11D-05  0.26D-04  2  2     0.26
   3      1.06967827    -0.35872402   -81.30788878    -0.00013580    -0.00000050  0.89D-08  0.77D-06  3  3     0.27
   4      1.06970890    -0.35872357   -81.30788834     0.00000045    -0.00000001  0.33D-09  0.15D-07  4  4     0.28
   5      1.06971122    -0.35872394   -81.30788870    -0.00000037    -0.00000000  0.54D-11  0.18D-09  5  5     0.29

 Norm of t1 vector:      0.05036685      S-energy:    -0.00162896      T1 diagnostic:  0.00192636
 Norm of t2 vector:      0.25918024      P-energy:    -0.35709498
                                         Alpha-Beta:  -0.27303384
                                         Alpha-Alpha: -0.04775992
                                         Beta-Beta:   -0.03630122

 Spin contamination <S**2-Sz**2-Sz>     0.00446115
  Reference energy                    -80.949164761471
  RHF-RMP2 correlation energy          -0.358723943155
 !RHF-RMP2 energy                     -81.307888704626

 Starting UCCSD calculation

 ITER.      SQ.NORM     CORR.ENERGY   TOTAL ENERGY   ENERGY CHANGE        DEN1      VAR(S)    VAR(P)  DIIS     TIME
   1      1.07983635    -0.36682227   -81.31598703    -0.36682227    -0.00581962  0.95D-03  0.37D-02  1  1     0.66
   2      1.09454529    -0.37260312   -81.32176788    -0.00578085    -0.00069699  0.15D-03  0.56D-03  2  2     1.03
   3      1.10298991    -0.37467570   -81.32384046    -0.00207258    -0.00007540  0.24D-04  0.62D-04  3  3     1.36
   4      1.10646292    -0.37531464   -81.32447940    -0.00063894    -0.00000912  0.32D-05  0.74D-05  4  4     1.66
   5      1.10728229    -0.37538418   -81.32454894    -0.00006954    -0.00000098  0.45D-06  0.74D-06  5  5     1.95
   6      1.10747971    -0.37539664   -81.32456140    -0.00001246    -0.00000012  0.85D-07  0.81D-07  6  6     2.24
   7      1.10751152    -0.37539709   -81.32456186    -0.00000046    -0.00000003  0.32D-07  0.15D-07  6  1     2.53
   8      1.10752176    -0.37539764   -81.32456240    -0.00000054    -0.00000001  0.17D-07  0.53D-08  6  2     2.88
   9      1.10752826    -0.37539819   -81.32456295    -0.00000055    -0.00000000  0.94D-08  0.25D-08  6  3     3.25
  10      1.10753050    -0.37539811   -81.32456287     0.00000008    -0.00000000  0.54D-08  0.13D-08  6  4     3.61

 Norm of t1 vector:      0.08302545      S-energy:    -0.00186296      T1 diagnostic:  0.01223211
                                                                       D1 diagnostic:  0.02509004
 Norm of t2 vector:      0.31723379      P-energy:    -0.37353515
                                         Alpha-Beta:  -0.28964872
                                         Alpha-Alpha: -0.04842206
                                         Beta-Beta:   -0.03546437

 Doubles amplitudes (print threshold =  0.500E-01):

         I         J         SYM. A    SYM. B    A         B      T(IJ, AB) [Alpha-Beta]

         2         2         5         5         1         1     -0.08840164

 Spin contamination <S**2-Sz**2-Sz>     0.00507412

 Memory could be reduced to 8.04 Mwords without degradation in triples
 

 RESULTS
 =======

  Reference energy                    -80.949164761471
  UCCSD singles energy                 -0.001862956691
  UCCSD pair energy                    -0.373535151786
  UCCSD correlation energy             -0.375398108477
  Triples (T) contribution             -0.007117158297
  Total correlation energy             -0.382515266774
 
  RHF-UCCSD energy                    -81.324562869948
  RHF-UCCSD[T] energy                 -81.331744856160
  RHF-UCCSD-T energy                  -81.331682855017
 !RHF-UCCSD(T) energy                 -81.331680028245

 Program statistics:

 Available memory in ccsd:               511999438
 Min. memory needed in ccsd:                570438
 Max. memory used in ccsd:                  761451
 Max. memory used in cckext:                616206 (10 integral passes)
 Max. memory used in cckint:               1172089 ( 1 integral passes)



 **********************************************************************************************************************************
 DATASETS  * FILE   NREC   LENGTH (MB)   RECORD NAMES
              1      21       53.33       500      610      700      900      950      970     1000      129      960     1100   
                                          VAR    BASINP    GEOM    SYMINP    ZMAT    AOBASIS   BASIS     P2S    ABASIS      S 
                                         1400     1410     1420     1200     1210     1080     1600     1650     1300     1700   
                                           T        V       ECP      H0       H01     AOSYM     SMH    MOLCAS    ERIS     OPER   
                                         1380   
                                         JKOP   

              2      11       20.21       200      700     1000      520     4202     5202     2101     2102     2103     2104   
                                        OPTIONS   GEOM     BASIS   MCVARS     RHF     MCSCF     RHF      RHF      RHF      RHF  
                                         2106   
                                          RHF  

 PROGRAMS   *        TOTAL  UCCSD(T)       RHF     MULTI       RHF  UCCSD(T)       RHF  UCCSD(T)       RHF  UCCSD(T)       RHF
 CPU TIMES  *        28.59      6.55      0.09      0.89      0.55      2.51      0.50      2.83      0.38      3.84      0.49
 REAL TIME  *        34.95 SEC
 DISK USED  *       188.07 MB      
 **********************************************************************************************************************************
 SETTING CCSD(5)        =       -81.33168003  AU                              
 Output type csv         
                                                                                                                                                                                                                                                                

       SCF,CCSD
   -80.94772771,   -81.31635039
   -80.74598067,   -81.09768076
   -80.10118705,   -80.40695956
   -79.06916455,   -79.36278714
   -80.94916476,   -81.33168003
                                                  

        UCCSD(T)        RHF-SCF         MULTI           RHF-SCF         UCCSD(T)        RHF-SCF         UCCSD(T)        RHF-SCF 
    -81.33168003    -80.94916476    -80.94916476    -80.94927991    -79.36278714    -79.06916455    -80.40695956    -80.10118705
 **********************************************************************************************************************************
 Variable memory released
