
 Primary working directories    : /tmp/cmelton
 Secondary working directories  : /tmp/cmelton
 Wavefunction directory         : /remote/cmelton/wfu/
 Main file repository           : /tmp/cmelton/

 SHA1      : 4c1979699e6aeda0524d0210415ba82a958648b0
 NAME      : 2012.1.39
 ARCHNAME  : Linux/x86_64
 FC        : /projects/sems/install/rhel6-x86_64/sems/compiler/intel/16.0.1/base/bin/ifort
 FCVERSION : 16.0.1
 BLASLIB   : -L/projects/sems/install/rhel6-x86_64/sems/compiler/intel/16.0.1/base/compilers_and_libraries_2016.1.150/linux/mkl/lib/intel64 -lmkl_intel_ilp64 -lmkl_sequential -lmkl_core
 id        : sandiacon

 Nodes             nprocs
 s989256.sandia.gov    1

 Using customized tuning parameters: mindgm=7; mindgv=16; mindgc=1; mindgr=1; noblas=0; minvec=7
 default implementation of scratch files=df  

 ***,Calculation for Be atom, singlet and triplet
 memory,512,m
 gthresh,twoint=1.0E-12
 geometry={
 1
 Mg
 Mg  0.0 0.0 0.0
 }
 
 basis={
 ecp,Mg,10,2,0
 5
  1, 0.0,  2
  1, 0.0, -10.0
  1  ,  11.99962000  ,   10.00000000
  3  ,  12.00778300  ,  119.99620000
  2  ,  11.98802200  ,  -76.19471400
 2
  2  ,  90.16677400  ,   54.58518300
  2  ,  23.95808900  ,  117.10260900
 1
  2, 1.0, 0.0
 Including file aug-cc-pCVDZ.basis
 }
 
 Including file Mg/He-core/basis/states.proc
 
 do i=1,3
 if (i.eq.1) then
     GS
 else if (i.eq.2) then
     IP1
 else if (i.eq.3) then
     IP2
 endif
 scf(i)=energy
 _CC_NORM_MAX=2.0
 {uccsd(t),maxit=400;core}
 ccsd(i)=energy
 enddo
 
 table,scf,ccsd
 save
 type,csv

 Variables initialized (782), CPU time= 0.01 sec
 Commands  initialized (547), CPU time= 0.01 sec, 517 directives.
 Default parameters read. Elapsed time= 0.21 sec

 Checking input...
 Passed
1


                                         ***  PROGRAM SYSTEM MOLPRO  ***
                         Copyright, University College Cardiff Consultants Limited, 2008

                                    Version 2012.1 linked Aug  2 2016 14:07:26


 **********************************************************************************************************************************
 LABEL *   Calculation for Be atom, singlet and triplet                                  
 Linux-3.10.0-693.21.1.el7.x86_64/s989256.sandia.gov(x86_64) 64 bit serial version       DATE: 30-Apr-18          TIME: 17:47:15  
 **********************************************************************************************************************************

 SHA1:             4c1979699e6aeda0524d0210415ba82a958648b0
 **********************************************************************************************************************************

 THRESHOLDS:

 ZERO    =  1.00D-12  ONEINT  =  1.00D-12  TWOINT  =  1.00D-12  PREFAC  =  1.00D-14  LOCALI  =  1.00D-09  EORDER  =  1.00D-04
 ENERGY  =  0.00D+00  ETEST   =  0.00D+00  EDENS   =  0.00D+00  THRDEDEF=  1.00D-06  GRADIENT=  1.00D-02  STEP    =  1.00D-03
 ORBITAL =  1.00D-05  CIVEC   =  1.00D-05  COEFF   =  1.00D-04  PRINTCI =  5.00D-02  PUNCHCI =  9.90D+01  OPTGRAD =  3.00D-04
 OPTENERG=  1.00D-06  OPTSTEP =  3.00D-04  THRGRAD =  1.00D-10  COMPRESS=  1.00D-11  VARMIN  =  1.00D-07  VARMAX  =  1.00D-03
 THRDOUB =  0.00D+00  THRDIV  =  1.00D-05  THRRED  =  1.00D-07  THRPSP  =  1.00D+00  THRDC   =  1.00D-10  THRCS   =  1.00D-10
 THRNRM  =  1.00D-08  THREQ   =  0.00D+00  THRDE   =  1.00D+00  THRREF  =  1.00D-05  SPARFAC =  1.00D+00  THRDLP  =  1.00D-07
 THRDIA  =  1.00D-10  THRDLS  =  1.00D-07  THRGPS  =  0.00D+00  THRKEX  =  0.00D+00  THRDIS  =  2.00D-01  THRVAR  =  1.00D-10
 THRLOC  =  1.00D-06  THRGAP  =  1.00D-06  THRLOCT = -1.00D+00  THRGAPT = -1.00D+00  THRORB  =  1.00D-06  THRMLTP =  0.00D+00
 THRCPQCI=  1.00D-10  KEXTA   =  0.00D+00  THRCOARS=  0.00D+00  SYMTOL  =  1.00D-06  GRADTOL =  1.00D-06  THROVL  =  1.00D-08
 THRORTH =  1.00D-08  GRID    =  1.00D-06  GRIDMAX =  1.00D-03  DTMAX   =  0.00D+00  THROCCDE=  1.00D-01  THROCCDE=  1.00D-01



Geometry recognized as XYZ


 Variable memory set to  512000000 words,  buffer space   230000 words

 SETTING BASIS          =    USERDEF

 DO I                   =         1.00000000   

 Running procedure=GS


 Recomputing integrals since basis changed


 Using spherical harmonics


1PROGRAM * SEWARD (Integral evaluation for generally contracted gaussian basis sets)     Author: Roland Lindh, 1990

 Geometry written to block  1 of record 700

 Orientation using atomic masses  
 Molecule type: Atom
 Symmetry elements: X,Y,Z
 Rotational constants:       0.0000000      0.0000000      0.0000000 GHz  (calculated with average atomic masses)

 Point group  D2h 



 ATOMIC COORDINATES

 NR  ATOM    CHARGE       X              Y              Z

   1  MG      2.00    0.000000000    0.000000000    0.000000000

 NUCLEAR CHARGE:                    2
 NUMBER OF PRIMITIVE AOS:          62
 NUMBER OF SYMMETRY AOS:           59
 NUMBER OF CONTRACTIONS:           59   (  20Ag  +  10B3u +  10B2u +   3B1g +  10B1u +   3B2g +   3B3g +   0Au  )
 NUMBER OF CORE ORBITALS:           0   (   0Ag  +   0B3u +   0B2u +   0B1g +   0B1u +   0B2g +   0B3g +   0Au  )
 NUMBER OF VALENCE ORBITALS:        4   (   1Ag  +   1B3u +   1B2u +   0B1g +   1B1u +   0B2g +   0B3g +   0Au  )


 NUCLEAR REPULSION ENERGY    0.00000000

 EXTRA SYMMETRY OF AOS IN SYMMETRY 1:   1 1 1 1 1 1 1 1 1 1   1 1 1 1 2 3 2 3 2 3

 Eigenvalues of metric

         1 0.543E-03 0.736E-02 0.267E-01 0.402E-01 0.768E-01 0.157E+00 0.274E+00 0.418E+00
         2 0.283E-02 0.452E-01 0.132E+00 0.238E+00 0.428E+00 0.737E+00 0.112E+01 0.156E+01
         3 0.283E-02 0.452E-01 0.132E+00 0.238E+00 0.428E+00 0.737E+00 0.112E+01 0.156E+01
         4 0.418E+00 0.999E+00 0.158E+01
         5 0.283E-02 0.452E-01 0.132E+00 0.238E+00 0.428E+00 0.737E+00 0.112E+01 0.156E+01
         6 0.418E+00 0.999E+00 0.158E+01
         7 0.418E+00 0.999E+00 0.158E+01


 Contracted 2-electron integrals neglected if value below      1.0D-12
 AO integral compression algorithm  1   Integral accuracy      1.0D-12

     3.408 MB (compressed) written to integral file ( 67.3%)


 NUMBER OF SORTED TWO-ELECTRON INTEGRALS:     242307.     BUFFER LENGTH:  32768
 NUMBER OF SEGMENTS:   1  SEGMENT LENGTH:     242307      RECORD LENGTH: 524288

 Memory used in sort:       0.80 MW

 SORT1 READ      631021. AND WROTE      215153. INTEGRALS IN      1 RECORDS. CPU TIME:     0.01 SEC, REAL TIME:     0.01 SEC
 SORT2 READ      215153. AND WROTE      242307. INTEGRALS IN     13 RECORDS. CPU TIME:     0.02 SEC, REAL TIME:     0.02 SEC

 FILE SIZES:   FILE 1:    11.0 MBYTE,  FILE 4:     4.2 MBYTE,   TOTAL:     15.2 MBYTE

 OPERATOR DM      FOR CENTER  0  COORDINATES:    0.000000    0.000000    0.000000


 **********************************************************************************************************************************
 DATASETS  * FILE   NREC   LENGTH (MB)   RECORD NAMES
              1      20        8.76       500      610      700      900      950      970     1000      129      960     1100   
                                          VAR    BASINP    GEOM    SYMINP    ZMAT    AOBASIS   BASIS     P2S    ABASIS      S 
                                         1400     1410     1420     1200     1210     1080     1600     1650     1300     1700   
                                           T        V       ECP      H0       H01     AOSYM     SMH    MOLCAS    ERIS     OPER   

 PROGRAMS   *        TOTAL       INT
 CPU TIMES  *         0.57      0.40
 REAL TIME  *         1.16 SEC
 DISK USED  *        16.30 MB      
 **********************************************************************************************************************************

1PROGRAM * RHF-SCF (CLOSED SHELL)       Authors: W. Meyer, H.-J. Werner


 NUMBER OF ELECTRONS:       5+    5-    SPACE SYMMETRY=1    SPIN SYMMETRY: Singlet 
 CONVERGENCE THRESHOLDS:    1.00E-05 (Density)    1.00E-07 (Energy)
 MAX. NUMBER OF ITERATIONS:       60
 INTERPOLATION TYPE:            DIIS
 INTERPOLATION STEPS:              2 (START)      1 (STEP)
 LEVEL SHIFTS:                  0.00 (CLOSED)  0.00 (OPEN) 



 Orbital guess generated from atomic densities. Full valence occupancy:    1   0   0   0   0   0   0   0


 Molecular orbital dump at record        2100.2

 ITERATION    DDIFF          GRAD             ENERGY        2-EL.EN.            DIPOLE MOMENTS         DIIS   ORB.
    1      0.000D+00      0.000D+00       -53.46994511    121.879388    0.00000    0.00000    0.00000    0    start
    2      0.000D+00      0.705D+00       -59.74681940     58.030549    0.00000    0.00000    0.00000    1    diag
    3      0.776D+00      0.345D+00       -62.84825934     84.817168    0.00000    0.00000    0.00000    2    diag
    4      0.227D+00      0.541D-01       -62.90464154     82.754323    0.00000    0.00000    0.00000    3    diag
    5      0.434D-01      0.595D-02       -62.90679506     82.304870    0.00000    0.00000    0.00000    4    diag
    6      0.188D-01      0.674D-03       -62.90686257     82.273361    0.00000    0.00000    0.00000    5    diag
    7      0.421D-02      0.777D-04       -62.90686349     82.270288    0.00000    0.00000    0.00000    6    diag
    8      0.555D-03      0.388D-05       -62.90686349     82.270194    0.00000    0.00000    0.00000    7    diag
    9      0.734D-05      0.342D-06       -62.90686349     82.270201    0.00000    0.00000    0.00000    0    orth

 Final occupancy:   2   1   1   0   1   0   0

 !RHF STATE 1.1 Energy                -62.906863492540
 Nuclear energy                         0.00000000
 One-electron energy                 -104.04196384
 Two-electron energy                   41.13510035
 Virial quotient                       -1.25635880
 !RHF STATE 1.1 Dipole moment           0.00000000     0.00000000     0.00000000
 Dipole moment /Debye                   0.00000000     0.00000000     0.00000000

 Orbital energies:

         1.1          2.1          3.1          4.1
     -3.762524    -0.253438     0.037456     0.173964

         1.2          2.2          3.2
     -2.289973     0.016576     0.063598

         1.3          2.3          3.3
     -2.289973     0.016576     0.063598

         1.4          2.4
      0.173964     0.574090

         1.5          2.5          3.5
     -2.289973     0.016576     0.063598

         1.6          2.6
      0.173964     0.574090

         1.7          2.7
      0.173964     0.574090

 HOMO      2.1    -0.253438 =      -6.8964eV
 LUMO      2.2     0.016576 =       0.4510eV
 LUMO-HOMO         0.270013 =       7.3474eV


 **********************************************************************************************************************************
 DATASETS  * FILE   NREC   LENGTH (MB)   RECORD NAMES
              1      20        8.76       500      610      700      900      950      970     1000      129      960     1100   
                                          VAR    BASINP    GEOM    SYMINP    ZMAT    AOBASIS   BASIS     P2S    ABASIS      S 
                                         1400     1410     1420     1200     1210     1080     1600     1650     1300     1700   
                                           T        V       ECP      H0       H01     AOSYM     SMH    MOLCAS    ERIS     OPER   

              2       5        3.54       200      700     1000      520     2100   
                                        OPTIONS   GEOM     BASIS   MCVARS     RHF  

 PROGRAMS   *        TOTAL       RHF       INT
 CPU TIMES  *         0.64      0.07      0.40
 REAL TIME  *         1.31 SEC
 DISK USED  *        16.30 MB      
 **********************************************************************************************************************************
 SETTING SCF(1)         =       -62.90686349  AU                              
 SETTING _CC_NORM_MAX   =         2.00000000                                  


1PROGRAM * CCSD (Unrestricted open-shell coupled cluster)     Authors: C. Hampel, H.-J. Werner, 1991, M. Deegan, P.J. Knowles, 1992


 Convergence thresholds:  THRVAR = 1.00D-08  THRDEN = 1.00D-06

 CCSD(T)     terms to be evaluated (factor= 1.000)


 Number of closed-shell orbitals:   5 (   2   1   1   0   1   0   0 )
 Number of external orbitals:      54 (  18   9   9   3   9   3   3 )

 Memory could be reduced to 0.63 Mwords without degradation in triples

 Number of N-1 electron functions:              10
 Number of N-2 electron functions:              45
 Number of singly external CSFs:               126
 Number of doubly external CSFs:             16173
 Total number of CSFs:                       16299

 Molecular orbitals read from record     2100.2  Type=RHF/CANONICAL (state 1.1)

 Integral transformation finished. Total CPU:   0.01 sec, npass=  1  Memory used:   0.10 MW

 Starting RMP2 calculation

 ITER.      SQ.NORM     CORR.ENERGY   TOTAL ENERGY   ENERGY CHANGE        DEN1      VAR(S)    VAR(P)  DIIS     TIME
   1      1.03990495    -0.23547822   -63.14234172    -0.23547822    -0.00074462  0.54D-12  0.74D-03  1  1     0.02
   2      1.04195541    -0.23630153   -63.14316502    -0.00082331    -0.00001345  0.40D-13  0.15D-04  2  2     0.02
   3      1.04229432    -0.23641310   -63.14327659    -0.00011157    -0.00000005  0.14D-14  0.54D-07  3  3     0.02
   4      1.04230097    -0.23641385   -63.14327735    -0.00000076    -0.00000000  0.48D-16  0.15D-09  4  4     0.02

 Norm of t1 vector:      0.00000328      S-energy:    -0.00000000      T1 diagnostic:  0.00000073
 Norm of t2 vector:      0.20567199      P-energy:    -0.23641385
                                         Alpha-Beta:  -0.17995447
                                         Alpha-Alpha: -0.02822969
                                         Beta-Beta:   -0.02822969

 Spin contamination <S**2-Sz**2-Sz>     0.00000000
  Reference energy                    -62.906863492540
  RHF-RMP2 correlation energy          -0.236413853150
 !RHF-RMP2 energy                     -63.143277345690

 Starting UCCSD calculation

 ITER.      SQ.NORM     CORR.ENERGY   TOTAL ENERGY   ENERGY CHANGE        DEN1      VAR(S)    VAR(P)  DIIS     TIME
   1      1.05075621    -0.24241552   -63.14927901    -0.24241552    -0.00457225  0.32D-03  0.35D-02  1  1     0.06
   2      1.06518236    -0.24735808   -63.15422157    -0.00494256    -0.00080859  0.90D-04  0.79D-03  2  2     0.08
   3      1.07621977    -0.24959444   -63.15645793    -0.00223636    -0.00013739  0.15D-04  0.13D-03  3  3     0.11
   4      1.08360578    -0.25073999   -63.15760349    -0.00114555    -0.00000553  0.53D-06  0.40D-05  4  4     0.13
   5      1.08441505    -0.25082006   -63.15768356    -0.00008007    -0.00000040  0.51D-07  0.30D-06  5  5     0.16
   6      1.08451578    -0.25082604   -63.15768953    -0.00000597    -0.00000003  0.39D-08  0.22D-07  6  6     0.18
   7      1.08453339    -0.25082621   -63.15768971    -0.00000018    -0.00000000  0.36D-09  0.17D-08  6  1     0.20

 Norm of t1 vector:      0.04258703      S-energy:    -0.00000003      T1 diagnostic:  0.00952275
                                                                       D1 diagnostic:  0.02899379
 Norm of t2 vector:      0.28761039      P-energy:    -0.25082618
                                         Alpha-Beta:  -0.19665248
                                         Alpha-Alpha: -0.02708685
                                         Beta-Beta:   -0.02708685

 Doubles amplitudes (print threshold =  0.500E-01):

         I         J         SYM. A    SYM. B    A         B      T(IJ, AB) [Alpha-Beta]

         2         2         2         2         2         2     -0.08657039
         2         2         2         2         2         3     -0.05237234
         2         2         2         2         3         2     -0.05237234
         2         2         3         3         2         2     -0.08657039
         2         2         3         3         2         3     -0.05237234
         2         2         3         3         3         2     -0.05237234
         2         2         5         5         2         2     -0.08657039
         2         2         5         5         2         3     -0.05237234
         2         2         5         5         3         2     -0.05237234

 Spin contamination <S**2-Sz**2-Sz>     0.00000000

 Memory could be reduced to 0.67 Mwords without degradation in triples
 

 RESULTS
 =======

  Reference energy                    -62.906863492540
  UCCSD singles energy                 -0.000000032443
  UCCSD pair energy                    -0.250826181683
  UCCSD correlation energy             -0.250826214126
  Triples (T) contribution             -0.002065527683
  Total correlation energy             -0.252891741809
 
  RHF-UCCSD energy                    -63.157689706666
  RHF-UCCSD[T] energy                 -63.159808015336
  RHF-UCCSD-T energy                  -63.159726108433
 !RHF-UCCSD(T) energy                 -63.159755234349

 Program statistics:

 Available memory in ccsd:               511999650
 Min. memory needed in ccsd:                 63870
 Max. memory used in ccsd:                   81393
 Max. memory used in cckext:                 99590 ( 7 integral passes)
 Max. memory used in cckint:                102178 ( 1 integral passes)



 **********************************************************************************************************************************
 DATASETS  * FILE   NREC   LENGTH (MB)   RECORD NAMES
              1      20        8.76       500      610      700      900      950      970     1000      129      960     1100   
                                          VAR    BASINP    GEOM    SYMINP    ZMAT    AOBASIS   BASIS     P2S    ABASIS      S 
                                         1400     1410     1420     1200     1210     1080     1600     1650     1300     1700   
                                           T        V       ECP      H0       H01     AOSYM     SMH    MOLCAS    ERIS     OPER   

              2       5        3.54       200      700     1000      520     2100   
                                        OPTIONS   GEOM     BASIS   MCVARS     RHF  

 PROGRAMS   *        TOTAL  UCCSD(T)       RHF       INT
 CPU TIMES  *         0.97      0.33      0.07      0.40
 REAL TIME  *         1.83 SEC
 DISK USED  *        18.63 MB      
 **********************************************************************************************************************************
 SETTING CCSD(1)        =       -63.15975523  AU                              

 DO I                   =         2.00000000   

 Running procedure=IP1

1PROGRAM * RHF-SCF (OPEN SHELL)       Authors: W. Meyer, H.-J. Werner


 NUMBER OF ELECTRONS:       5+    4-    SPACE SYMMETRY=1    SPIN SYMMETRY: Doublet 
 CONVERGENCE THRESHOLDS:    1.00E-05 (Density)    1.00E-07 (Energy)
 MAX. NUMBER OF ITERATIONS:       60
 INTERPOLATION TYPE:            DIIS
 INTERPOLATION STEPS:              2 (START)      1 (STEP)
 LEVEL SHIFTS:                 -0.30 (CLOSED)  0.00 (OPEN) 



 Orbital guess generated from atomic densities. Full valence occupancy:    1   0   0   0   0   0   0   0


 Molecular orbital dump at record        2101.2

 ITERATION    DDIFF          GRAD             ENERGY        2-EL.EN.            DIPOLE MOMENTS         DIIS   ORB.
    1      0.000D+00      0.000D+00       -55.47511735    106.325575    0.00000    0.00000    0.00000    0    start
    2      0.000D+00      0.630D+00       -61.98651660     68.016675    0.00000    0.00000    0.00000    1    diag,B
    3      0.390D+00      0.190D+00       -62.65930848     76.676078    0.00000    0.00000    0.00000    2    diag,B
    4      0.373D-01      0.132D-01       -62.66352782     76.572200    0.00000    0.00000    0.00000    3    diag,B
    5      0.858D-02      0.174D-02       -62.66361230     76.557796    0.00000    0.00000    0.00000    4    diag,B
    6      0.135D-02      0.913D-04       -62.66361279     76.559563    0.00000    0.00000    0.00000    5    diag,B
    7      0.852D-04      0.456D-05       -62.66361280     76.559829    0.00000    0.00000    0.00000    6    fixocc
    8      0.106D-04      0.644D-06       -62.66361280     76.559889    0.00000    0.00000    0.00000    7    diag,B
    9      0.429D-05      0.116D-06       -62.66361280     76.559899    0.00000    0.00000    0.00000    0    orth

 Final alpha occupancy:   2   1   1   0   1   0   0
 Final beta  occupancy:   1   1   1   0   1   0   0

 !RHF STATE 1.1 Energy                -62.663612797796
 Nuclear energy                         0.00000000
 One-electron energy                 -100.94356225
 Two-electron energy                   38.27994945
 Virial quotient                       -1.25404515
 !RHF STATE 1.1 Dipole moment           0.00000000     0.00000000     0.00000000
 Dipole moment /Debye                   0.00000000     0.00000000     0.00000000

 Orbital energies:

         1.1          2.1          3.1          4.1
     -4.082609    -0.542208    -0.087627    -0.016717

         1.2          2.2          3.2
     -2.612707    -0.170342    -0.060510

         1.3          2.3          3.3
     -2.612707    -0.170342    -0.060510

         1.4          2.4
     -0.016717     0.311210

         1.5          2.5          3.5
     -2.612707    -0.170342    -0.060510

         1.6          2.6
     -0.016717     0.311210

         1.7          2.7
     -0.016717     0.311210

 HOMO      2.1    -0.542208 =     -14.7542eV
 LUMO      2.2    -0.170342 =      -4.6352eV
 LUMO-HOMO         0.371866 =      10.1190eV


 **********************************************************************************************************************************
 DATASETS  * FILE   NREC   LENGTH (MB)   RECORD NAMES
              1      20        8.76       500      610      700      900      950      970     1000      129      960     1100   
                                          VAR    BASINP    GEOM    SYMINP    ZMAT    AOBASIS   BASIS     P2S    ABASIS      S 
                                         1400     1410     1420     1200     1210     1080     1600     1650     1300     1700   
                                           T        V       ECP      H0       H01     AOSYM     SMH    MOLCAS    ERIS     OPER   

              2       6        6.07       200      700     1000      520     2100     2101   
                                        OPTIONS   GEOM     BASIS   MCVARS     RHF      RHF  

 PROGRAMS   *        TOTAL       RHF  UCCSD(T)       RHF       INT
 CPU TIMES  *         1.03      0.06      0.33      0.07      0.40
 REAL TIME  *         1.99 SEC
 DISK USED  *        18.63 MB      
 **********************************************************************************************************************************
 SETTING SCF(2)         =       -62.66361280  AU                              
 SETTING _CC_NORM_MAX   =         2.00000000                                  


1PROGRAM * CCSD (Unrestricted open-shell coupled cluster)     Authors: C. Hampel, H.-J. Werner, 1991, M. Deegan, P.J. Knowles, 1992


 Convergence thresholds:  THRVAR = 1.00D-08  THRDEN = 1.00D-06

 CCSD(T)     terms to be evaluated (factor= 1.000)


 Number of closed-shell orbitals:   4 (   1   1   1   0   1   0   0 )
 Number of active  orbitals:        1 (   1   0   0   0   0   0   0 )
 Number of external orbitals:      54 (  18   9   9   3   9   3   3 )

 Memory could be reduced to 0.64 Mwords without degradation in triples

 Number of N-1 electron functions:               9
 Number of N-2 electron functions:              36
 Number of singly external CSFs:               111
 Number of doubly external CSFs:             13051
 Total number of CSFs:                       13162

 Molecular orbitals read from record     2101.2  Type=RHF/CANONICAL (state 1.1)

 Integral transformation finished. Total CPU:   0.01 sec, npass=  1  Memory used:   0.10 MW

 Starting RMP2 calculation

 ITER.      SQ.NORM     CORR.ENERGY   TOTAL ENERGY   ENERGY CHANGE        DEN1      VAR(S)    VAR(P)  DIIS     TIME
   1      1.01476786    -0.21130824   -62.87492104    -0.21130824    -0.00004468  0.37D-07  0.48D-05  1  1     0.01
   2      1.01477785    -0.21135366   -62.87496645    -0.00004542    -0.00000001  0.51D-10  0.13D-08  2  2     0.01
   3      1.01477795    -0.21135385   -62.87496665    -0.00000020    -0.00000000  0.46D-13  0.70D-12  3  3     0.01

 Norm of t1 vector:      0.00433877      S-energy:    -0.00006336      T1 diagnostic:  0.00001257
 Norm of t2 vector:      0.12148714      P-energy:    -0.21129050
                                         Alpha-Beta:  -0.15641145
                                         Alpha-Alpha: -0.02868807
                                         Beta-Beta:   -0.02619098

 Spin contamination <S**2-Sz**2-Sz>     0.00003352
  Reference energy                    -62.663612797796
  RHF-RMP2 correlation energy          -0.211353853047
 !RHF-RMP2 energy                     -62.874966650842

 Starting UCCSD calculation

 ITER.      SQ.NORM     CORR.ENERGY   TOTAL ENERGY   ENERGY CHANGE        DEN1      VAR(S)    VAR(P)  DIIS     TIME
   1      1.01542719    -0.21530672   -62.87891952    -0.21530672    -0.00128794  0.10D-03  0.72D-04  1  1     0.04
   2      1.01582611    -0.21665262   -62.88026542    -0.00134590    -0.00003170  0.45D-05  0.33D-05  2  2     0.07
   3      1.01589898    -0.21676959   -62.88038238    -0.00011696    -0.00000121  0.94D-06  0.33D-07  3  3     0.09
   4      1.01591577    -0.21678345   -62.88039625    -0.00001386    -0.00000013  0.16D-06  0.25D-08  4  4     0.12
   5      1.01592142    -0.21678501   -62.88039781    -0.00000156    -0.00000001  0.17D-07  0.16D-09  5  5     0.14
   6      1.01592361    -0.21678578   -62.88039858    -0.00000078    -0.00000000  0.31D-09  0.71D-11  6  6     0.16

 Norm of t1 vector:      0.01539570      S-energy:    -0.00007501      T1 diagnostic:  0.00339990
                                                                       D1 diagnostic:  0.00624195
 Norm of t2 vector:      0.12524610      P-energy:    -0.21671077
                                         Alpha-Beta:  -0.16385775
                                         Alpha-Alpha: -0.02777292
                                         Beta-Beta:   -0.02508010

 Spin contamination <S**2-Sz**2-Sz>     0.00007186

 Memory could be reduced to 0.68 Mwords without degradation in triples
 

 RESULTS
 =======

  Reference energy                    -62.663612797796
  UCCSD singles energy                 -0.000075010850
  UCCSD pair energy                    -0.216710773377
  UCCSD correlation energy             -0.216785784226
  Triples (T) contribution             -0.001164478552
  Total correlation energy             -0.217950262778
 
  RHF-UCCSD energy                    -62.880398582022
  RHF-UCCSD[T] energy                 -62.881606104146
  RHF-UCCSD-T energy                  -62.881538215715
 !RHF-UCCSD(T) energy                 -62.881563060574

 Program statistics:

 Available memory in ccsd:               511999650
 Min. memory needed in ccsd:                 56332
 Max. memory used in ccsd:                   69794
 Max. memory used in cckext:                 88158 ( 6 integral passes)
 Max. memory used in cckint:                102550 ( 1 integral passes)



 **********************************************************************************************************************************
 DATASETS  * FILE   NREC   LENGTH (MB)   RECORD NAMES
              1      20        8.76       500      610      700      900      950      970     1000      129      960     1100   
                                          VAR    BASINP    GEOM    SYMINP    ZMAT    AOBASIS   BASIS     P2S    ABASIS      S 
                                         1400     1410     1420     1200     1210     1080     1600     1650     1300     1700   
                                           T        V       ECP      H0       H01     AOSYM     SMH    MOLCAS    ERIS     OPER   

              2       6        6.07       200      700     1000      520     2100     2101   
                                        OPTIONS   GEOM     BASIS   MCVARS     RHF      RHF  

 PROGRAMS   *        TOTAL  UCCSD(T)       RHF  UCCSD(T)       RHF       INT
 CPU TIMES  *         1.31      0.27      0.06      0.33      0.07      0.40
 REAL TIME  *         2.44 SEC
 DISK USED  *        20.72 MB      
 **********************************************************************************************************************************
 SETTING CCSD(2)        =       -62.88156306  AU                              

 DO I                   =         3.00000000   

 Running procedure=IP2

1PROGRAM * RHF-SCF (CLOSED SHELL)       Authors: W. Meyer, H.-J. Werner


 NUMBER OF ELECTRONS:       4+    4-    SPACE SYMMETRY=1    SPIN SYMMETRY: Singlet 
 CONVERGENCE THRESHOLDS:    1.00E-05 (Density)    1.00E-07 (Energy)
 MAX. NUMBER OF ITERATIONS:       60
 INTERPOLATION TYPE:            DIIS
 INTERPOLATION STEPS:              2 (START)      1 (STEP)
 LEVEL SHIFTS:                  0.00 (CLOSED)  0.00 (OPEN) 



 Orbital guess generated from atomic densities. Full valence occupancy:    1   0   0   0   0   0   0   0


 Molecular orbital dump at record        2102.2

 ITERATION    DDIFF          GRAD             ENERGY        2-EL.EN.            DIPOLE MOMENTS         DIIS   ORB.
    1      0.000D+00      0.000D+00       -56.78048728     92.171367    0.00000    0.00000    0.00000    0    start
    2      0.000D+00      0.731D+00       -61.60861506     63.210801    0.00000    0.00000    0.00000    1    diag
    3      0.834D-01      0.202D+00       -62.11915434     70.545025    0.00000    0.00000    0.00000    2    diag
    4      0.215D-01      0.165D-01       -62.12180354     70.142034    0.00000    0.00000    0.00000    3    diag
    5      0.207D-02      0.739D-03       -62.12181212     70.136921    0.00000    0.00000    0.00000    4    diag
    6      0.200D-03      0.259D-04       -62.12181214     70.137432    0.00000    0.00000    0.00000    5    diag
    7      0.118D-04      0.122D-05       -62.12181214     70.137390    0.00000    0.00000    0.00000    6    diag
    8      0.453D-06      0.644D-07       -62.12181214     70.137391    0.00000    0.00000    0.00000    0    orth

 Final occupancy:   1   1   1   0   1   0   0

 !RHF STATE 1.1 Energy                -62.121812135217
 Nuclear energy                         0.00000000
 One-electron energy                  -97.19050784
 Two-electron energy                   35.06869571
 Virial quotient                       -1.24873343
 !RHF STATE 1.1 Dipole moment           0.00000000     0.00000000     0.00000000
 Dipole moment /Debye                   0.00000000     0.00000000     0.00000000

 Orbital energies:

         1.1          2.1          3.1
     -4.480091    -0.541414    -0.231203

         1.2          2.2          3.2
     -3.015489    -0.383125    -0.175550

         1.3          2.3          3.3
     -3.015489    -0.383125    -0.175550

         1.4          2.4
     -0.219146     0.054247

         1.5          2.5          3.5
     -3.015489    -0.383125    -0.175550

         1.6          2.6
     -0.219146     0.054247

         1.7          2.7
     -0.219146     0.054247

 HOMO      1.2    -3.015489 =     -82.0556eV
 LUMO      2.1    -0.541414 =     -14.7326eV
 LUMO-HOMO         2.474075 =      67.3230eV


 **********************************************************************************************************************************
 DATASETS  * FILE   NREC   LENGTH (MB)   RECORD NAMES
              1      20        8.76       500      610      700      900      950      970     1000      129      960     1100   
                                          VAR    BASINP    GEOM    SYMINP    ZMAT    AOBASIS   BASIS     P2S    ABASIS      S 
                                         1400     1410     1420     1200     1210     1080     1600     1650     1300     1700   
                                           T        V       ECP      H0       H01     AOSYM     SMH    MOLCAS    ERIS     OPER   

              2       7        8.58       200      700     1000      520     2100     2101     2102   
                                        OPTIONS   GEOM     BASIS   MCVARS     RHF      RHF      RHF  

 PROGRAMS   *        TOTAL       RHF  UCCSD(T)       RHF  UCCSD(T)       RHF       INT
 CPU TIMES  *         1.38      0.07      0.27      0.06      0.33      0.07      0.40
 REAL TIME  *         2.60 SEC
 DISK USED  *        20.72 MB      
 **********************************************************************************************************************************
 SETTING SCF(3)         =       -62.12181214  AU                              
 SETTING _CC_NORM_MAX   =         2.00000000                                  


1PROGRAM * CCSD (Unrestricted open-shell coupled cluster)     Authors: C. Hampel, H.-J. Werner, 1991, M. Deegan, P.J. Knowles, 1992


 Convergence thresholds:  THRVAR = 1.00D-08  THRDEN = 1.00D-06

 CCSD(T)     terms to be evaluated (factor= 1.000)


 Number of closed-shell orbitals:   4 (   1   1   1   0   1   0   0 )
 Number of external orbitals:      55 (  19   9   9   3   9   3   3 )

 Memory could be reduced to 0.60 Mwords without degradation in triples

 Number of N-1 electron functions:               8
 Number of N-2 electron functions:              28
 Number of singly external CSFs:                92
 Number of doubly external CSFs:              9902
 Total number of CSFs:                        9994

 Molecular orbitals read from record     2102.2  Type=RHF/CANONICAL (state 1.1)

 Integral transformation finished. Total CPU:   0.01 sec, npass=  1  Memory used:   0.10 MW

 Starting RMP2 calculation

 ITER.      SQ.NORM     CORR.ENERGY   TOTAL ENERGY   ENERGY CHANGE        DEN1      VAR(S)    VAR(P)  DIIS     TIME
   1      1.01394388    -0.20608565   -62.32789778    -0.20608565    -0.00004387  0.12D-17  0.43D-05  1  1     0.02
   2      1.01395279    -0.20613024   -62.32794238    -0.00004459    -0.00000000  0.13D-20  0.43D-09  2  2     0.02
   3      1.01395285    -0.20613039   -62.32794253    -0.00000015    -0.00000000  0.11D-23  0.24D-13  3  3     0.02

 Norm of t1 vector:      0.00000003      S-energy:    -0.00000000      T1 diagnostic:  0.00000001
 Norm of t2 vector:      0.11812217      P-energy:    -0.20613039
                                         Alpha-Beta:  -0.15394414
                                         Alpha-Alpha: -0.02609312
                                         Beta-Beta:   -0.02609312

 Spin contamination <S**2-Sz**2-Sz>     0.00000000
  Reference energy                    -62.121812135217
  RHF-RMP2 correlation energy          -0.206130393666
 !RHF-RMP2 energy                     -62.327942528883

 Starting UCCSD calculation

 ITER.      SQ.NORM     CORR.ENERGY   TOTAL ENERGY   ENERGY CHANGE        DEN1      VAR(S)    VAR(P)  DIIS     TIME
   1      1.01453544    -0.21030229   -62.33211443    -0.21030229    -0.00116893  0.63D-04  0.61D-04  1  1     0.04
   2      1.01483251    -0.21153411   -62.33334625    -0.00123182    -0.00002276  0.35D-06  0.21D-05  2  2     0.06
   3      1.01487093    -0.21163229   -62.33344443    -0.00009818    -0.00000035  0.48D-07  0.19D-07  3  3     0.08
   4      1.01487463    -0.21163837   -62.33345051    -0.00000608    -0.00000001  0.17D-09  0.69D-09  4  4     0.09
   5      1.01487481    -0.21163843   -62.33345057    -0.00000006    -0.00000000  0.18D-10  0.59D-11  5  5     0.11

 Norm of t1 vector:      0.00986724      S-energy:    -0.00000000      T1 diagnostic:  0.00246681
                                                                       D1 diagnostic:  0.00359381
 Norm of t2 vector:      0.12156253      P-energy:    -0.21163843
                                         Alpha-Beta:  -0.16156387
                                         Alpha-Alpha: -0.02503728
                                         Beta-Beta:   -0.02503728

 Spin contamination <S**2-Sz**2-Sz>     0.00000000

 Memory could be reduced to 0.62 Mwords without degradation in triples
 

 RESULTS
 =======

  Reference energy                    -62.121812135217
  UCCSD singles energy                 -0.000000000407
  UCCSD pair energy                    -0.211638432529
  UCCSD correlation energy             -0.211638432937
  Triples (T) contribution             -0.001023268251
  Total correlation energy             -0.212661701187
 
  RHF-UCCSD energy                    -62.333450568154
  RHF-UCCSD[T] energy                 -62.334510497328
  RHF-UCCSD-T energy                  -62.334452020073
 !RHF-UCCSD(T) energy                 -62.334473836404

 Program statistics:

 Available memory in ccsd:               511999732
 Min. memory needed in ccsd:                 46325
 Max. memory used in ccsd:                   56268
 Max. memory used in cckext:                 77630 ( 5 integral passes)
 Max. memory used in cckint:                 98755 ( 1 integral passes)



 **********************************************************************************************************************************
 DATASETS  * FILE   NREC   LENGTH (MB)   RECORD NAMES
              1      20        8.76       500      610      700      900      950      970     1000      129      960     1100   
                                          VAR    BASINP    GEOM    SYMINP    ZMAT    AOBASIS   BASIS     P2S    ABASIS      S 
                                         1400     1410     1420     1200     1210     1080     1600     1650     1300     1700   
                                           T        V       ECP      H0       H01     AOSYM     SMH    MOLCAS    ERIS     OPER   

              2       7        8.58       200      700     1000      520     2100     2101     2102   
                                        OPTIONS   GEOM     BASIS   MCVARS     RHF      RHF      RHF  

 PROGRAMS   *        TOTAL  UCCSD(T)       RHF  UCCSD(T)       RHF  UCCSD(T)       RHF       INT
 CPU TIMES  *         1.57      0.19      0.07      0.27      0.06      0.33      0.07      0.40
 REAL TIME  *         2.96 SEC
 DISK USED  *        21.63 MB      
 **********************************************************************************************************************************
 SETTING CCSD(3)        =       -62.33447384  AU                              
 Output type csv         
                                                                                                                                                                                                                                                                

       SCF,CCSD
   -62.90686349,   -63.15975523
   -62.66361280,   -62.88156306
   -62.12181214,   -62.33447384
                                                  

        UCCSD(T)        RHF-SCF         UCCSD(T)        RHF-SCF         UCCSD(T)        RHF-SCF 
    -62.33447384    -62.12181214    -62.88156306    -62.66361280    -63.15975523    -62.90686349
 **********************************************************************************************************************************
 Variable memory released
