
 Primary working directories    : /tmp/cmelton
 Secondary working directories  : /tmp/cmelton
 Wavefunction directory         : /remote/cmelton/wfu/
 Main file repository           : /tmp/cmelton/

 SHA1      : 4c1979699e6aeda0524d0210415ba82a958648b0
 NAME      : 2012.1.39
 ARCHNAME  : Linux/x86_64
 FC        : /projects/sems/install/rhel6-x86_64/sems/compiler/intel/16.0.1/base/bin/ifort
 FCVERSION : 16.0.1
 BLASLIB   : -L/projects/sems/install/rhel6-x86_64/sems/compiler/intel/16.0.1/base/compilers_and_libraries_2016.1.150/linux/mkl/lib/intel64 -lmkl_intel_ilp64 -lmkl_sequential -lmkl_core
 id        : sandiacon

 Nodes             nprocs
 s989256.sandia.gov    1

 Using customized tuning parameters: mindgm=7; mindgv=16; mindgc=1; mindgr=1; noblas=0; minvec=7
 default implementation of scratch files=df  

 ***,Calculation for Be atom, singlet and triplet
 memory,512,m
 gthresh,twoint=1.0E-12
 geometry={
 1
 Al
 Al  0.0 0.0 0.0
 }
 
 basis={
 ecp,Al,10,2,0;
 3;
 1,2.978096,3.0;
 3,9.96813,8.934288;
 2,2.721415,-9.402794;
 1;
 2,1.910508,17.571802;
 1;
 2,1.698219,12.148665;
 Including file /remote/cmelton/data/corrECP/2nd_row/aug-cc-pV5Z.basis
 }
 
 Including file /remote/cmelton/data/corrECP/2nd_row/Al/Ne-core/basis/states.proc
 
 do i=1,4
 if (i.eq.1) then
     GS
 else if (i.eq.2) then
     IP1
 else if (i.eq.3) then
     IP2
 else if (i.eq.4) then
     EA
 endif
 scf(i)=energy
 _CC_NORM_MAX=2.0
 {uccsd(t),maxit=400;core}
 ccsd(i)=energy
 enddo
 
 table,scf,ccsd
 save
 type,csv

 Variables initialized (782), CPU time= 0.01 sec
 Commands  initialized (547), CPU time= 0.01 sec, 517 directives.
 Default parameters read. Elapsed time= 0.21 sec

 Checking input...
 Passed
1


                                         ***  PROGRAM SYSTEM MOLPRO  ***
                         Copyright, University College Cardiff Consultants Limited, 2008

                                    Version 2012.1 linked Aug  2 2016 14:07:26


 **********************************************************************************************************************************
 LABEL *   Calculation for Be atom, singlet and triplet                                  
 Linux-3.10.0-693.21.1.el7.x86_64/s989256.sandia.gov(x86_64) 64 bit serial version       DATE: 01-May-18          TIME: 09:06:24  
 **********************************************************************************************************************************

 SHA1:             4c1979699e6aeda0524d0210415ba82a958648b0
 **********************************************************************************************************************************

 THRESHOLDS:

 ZERO    =  1.00D-12  ONEINT  =  1.00D-12  TWOINT  =  1.00D-12  PREFAC  =  1.00D-14  LOCALI  =  1.00D-09  EORDER  =  1.00D-04
 ENERGY  =  0.00D+00  ETEST   =  0.00D+00  EDENS   =  0.00D+00  THRDEDEF=  1.00D-06  GRADIENT=  1.00D-02  STEP    =  1.00D-03
 ORBITAL =  1.00D-05  CIVEC   =  1.00D-05  COEFF   =  1.00D-04  PRINTCI =  5.00D-02  PUNCHCI =  9.90D+01  OPTGRAD =  3.00D-04
 OPTENERG=  1.00D-06  OPTSTEP =  3.00D-04  THRGRAD =  1.00D-10  COMPRESS=  1.00D-11  VARMIN  =  1.00D-07  VARMAX  =  1.00D-03
 THRDOUB =  0.00D+00  THRDIV  =  1.00D-05  THRRED  =  1.00D-07  THRPSP  =  1.00D+00  THRDC   =  1.00D-10  THRCS   =  1.00D-10
 THRNRM  =  1.00D-08  THREQ   =  0.00D+00  THRDE   =  1.00D+00  THRREF  =  1.00D-05  SPARFAC =  1.00D+00  THRDLP  =  1.00D-07
 THRDIA  =  1.00D-10  THRDLS  =  1.00D-07  THRGPS  =  0.00D+00  THRKEX  =  0.00D+00  THRDIS  =  2.00D-01  THRVAR  =  1.00D-10
 THRLOC  =  1.00D-06  THRGAP  =  1.00D-06  THRLOCT = -1.00D+00  THRGAPT = -1.00D+00  THRORB  =  1.00D-06  THRMLTP =  0.00D+00
 THRCPQCI=  1.00D-10  KEXTA   =  0.00D+00  THRCOARS=  0.00D+00  SYMTOL  =  1.00D-06  GRADTOL =  1.00D-06  THROVL  =  1.00D-08
 THRORTH =  1.00D-08  GRID    =  1.00D-06  GRIDMAX =  1.00D-03  DTMAX   =  0.00D+00  THROCCDE=  1.00D-01  THROCCDE=  1.00D-01



Geometry recognized as XYZ


 Variable memory set to  512000000 words,  buffer space   230000 words

 SETTING BASIS          =    USERDEF

 DO I                   =         1.00000000   

 Running procedure=GS


 Recomputing integrals since basis changed


 Using spherical harmonics


1PROGRAM * SEWARD (Integral evaluation for generally contracted gaussian basis sets)     Author: Roland Lindh, 1990

 Geometry written to block  1 of record 700

 Orientation using atomic masses  
 Molecule type: Atom
 Symmetry elements: X,Y,Z
 Rotational constants:       0.0000000      0.0000000      0.0000000 GHz  (calculated with average atomic masses)

 Point group  D2h 



 ATOMIC COORDINATES

 NR  ATOM    CHARGE       X              Y              Z

   1  AL      3.00    0.000000000    0.000000000    0.000000000

 NUCLEAR CHARGE:                    3
 NUMBER OF PRIMITIVE AOS:         217
 NUMBER OF SYMMETRY AOS:          162
 NUMBER OF CONTRACTIONS:          162   (  40Ag  +  27B3u +  27B2u +  11B1g +  27B1u +  11B2g +  11B3g +   8Au  )
 NUMBER OF CORE ORBITALS:           0   (   0Ag  +   0B3u +   0B2u +   0B1g +   0B1u +   0B2g +   0B3g +   0Au  )
 NUMBER OF VALENCE ORBITALS:        4   (   1Ag  +   1B3u +   1B2u +   0B1g +   1B1u +   0B2g +   0B3g +   0Au  )


 NUCLEAR REPULSION ENERGY    0.00000000

 EXTRA SYMMETRY OF AOS IN SYMMETRY 1:   1 1 1 1 1 1 1 1 1 1   1 1 1 1 1 1 1 1 1 1   1 2 3 2 3 2 3 2 3 2   3 4 5 6 4 5 6 4 5 6
 EXTRA SYMMETRY OF AOS IN SYMMETRY 2:   1 1 1 1 1 1 1 1 1 1   1 1 1 2 3 2 3 2 3 2   3 4 5 6 4 5 6
 EXTRA SYMMETRY OF AOS IN SYMMETRY 3:   1 1 1 1 1 1 1 1 1 1   1 1 1 2 3 2 3 2 3 2   3 4 5 6 4 5 6
 EXTRA SYMMETRY OF AOS IN SYMMETRY 4:   1 1 1 1 1 2 3 2 3 2   3
 EXTRA SYMMETRY OF AOS IN SYMMETRY 5:   1 1 1 1 1 1 1 1 1 1   1 1 1 2 3 2 3 2 3 2   3 4 5 6 4 5 6
 EXTRA SYMMETRY OF AOS IN SYMMETRY 6:   1 1 1 1 1 2 3 2 3 2   3
 EXTRA SYMMETRY OF AOS IN SYMMETRY 7:   1 1 1 1 1 2 3 2 3 2   3
 EXTRA SYMMETRY OF AOS IN SYMMETRY 8:   1 1 1 1 2 3 2 3

 Eigenvalues of metric

         1 0.316E-03 0.913E-03 0.241E-02 0.475E-02 0.831E-02 0.152E-01 0.278E-01 0.485E-01
         2 0.545E-02 0.192E-01 0.422E-01 0.541E-01 0.541E-01 0.806E-01 0.161E+00 0.278E+00
         3 0.545E-02 0.192E-01 0.422E-01 0.541E-01 0.541E-01 0.806E-01 0.161E+00 0.278E+00
         4 0.641E-01 0.181E+00 0.181E+00 0.244E+00 0.679E+00 0.808E+00 0.808E+00 0.147E+01
         5 0.545E-02 0.192E-01 0.422E-01 0.541E-01 0.541E-01 0.806E-01 0.161E+00 0.278E+00
         6 0.641E-01 0.181E+00 0.181E+00 0.244E+00 0.679E+00 0.808E+00 0.808E+00 0.147E+01
         7 0.641E-01 0.181E+00 0.181E+00 0.244E+00 0.679E+00 0.808E+00 0.808E+00 0.147E+01
         8 0.541E-01 0.305E+00 0.305E+00 0.358E+00 0.108E+01 0.170E+01 0.170E+01 0.250E+01


 Contracted 2-electron integrals neglected if value below      1.0D-12
 AO integral compression algorithm  1   Integral accuracy      1.0D-12

     51.118 MB (compressed) written to integral file ( 38.1%)


 NUMBER OF SORTED TWO-ELECTRON INTEGRALS:   11470111.     BUFFER LENGTH:  32768
 NUMBER OF SEGMENTS:   1  SEGMENT LENGTH:   11470111      RECORD LENGTH: 524288

 Memory used in sort:      12.03 MW

 SORT1 READ    16733630. AND WROTE     5886931. INTEGRALS IN     17 RECORDS. CPU TIME:     0.33 SEC, REAL TIME:     0.39 SEC
 SORT2 READ     5886931. AND WROTE    11470111. INTEGRALS IN    195 RECORDS. CPU TIME:     0.23 SEC, REAL TIME:     0.28 SEC

 FILE SIZES:   FILE 1:    59.3 MBYTE,  FILE 4:    71.3 MBYTE,   TOTAL:    130.6 MBYTE

 OPERATOR DM      FOR CENTER  0  COORDINATES:    0.000000    0.000000    0.000000


 **********************************************************************************************************************************
 DATASETS  * FILE   NREC   LENGTH (MB)   RECORD NAMES
              1      20       37.53       500      610      700      900      950      970     1000      129      960     1100   
                                          VAR    BASINP    GEOM    SYMINP    ZMAT    AOBASIS   BASIS     P2S    ABASIS      S 
                                         1400     1410     1420     1200     1210     1080     1600     1650     1300     1700   
                                           T        V       ECP      H0       H01     AOSYM     SMH    MOLCAS    ERIS     OPER   

 PROGRAMS   *        TOTAL       INT
 CPU TIMES  *         4.02      3.86
 REAL TIME  *         4.89 SEC
 DISK USED  *       131.99 MB      
 **********************************************************************************************************************************

1PROGRAM * RHF-SCF (OPEN SHELL)       Authors: W. Meyer, H.-J. Werner


 NUMBER OF ELECTRONS:       2+    1-    SPACE SYMMETRY=2    SPIN SYMMETRY: Doublet 
 CONVERGENCE THRESHOLDS:    1.00E-05 (Density)    1.00E-07 (Energy)
 MAX. NUMBER OF ITERATIONS:       60
 INTERPOLATION TYPE:            DIIS
 INTERPOLATION STEPS:              2 (START)      1 (STEP)
 LEVEL SHIFTS:                 -0.30 (CLOSED)  0.00 (OPEN) 


 Singly occupied orbitals:      1.2
 Orbital guess generated from atomic densities. Full valence occupancy:    1   1   1   0   1   0   0   0


 Molecular orbital dump at record        4202.2

 ITERATION    DDIFF          GRAD             ENERGY        2-EL.EN.            DIPOLE MOMENTS         DIIS   ORB.
    1      0.000D+00      0.000D+00        -1.86653446      1.642493    0.00000    0.00000    0.00000    0    start
    2      0.000D+00      0.296D-02        -1.87344703      1.717262    0.00000    0.00000    0.00000    1    diag,B
    3      0.245D-02      0.107D-02        -1.87495715      1.749791    0.00000    0.00000    0.00000    2    diag,B
    4      0.146D-02      0.462D-03        -1.87515282      1.759044    0.00000    0.00000    0.00000    3    diag,B
    5      0.871D-03      0.107D-03        -1.87515683      1.758424    0.00000    0.00000    0.00000    4    diag,B
    6      0.211D-03      0.233D-04        -1.87515705      1.758551    0.00000    0.00000    0.00000    5    diag,B
    7      0.804D-04      0.651D-05        -1.87515706      1.758474    0.00000    0.00000    0.00000    6    fixocc
    8      0.139D-04      0.164D-05        -1.87515706      1.758477    0.00000    0.00000    0.00000    7    diag,B
    9      0.536D-05      0.257D-06        -1.87515706      1.758476    0.00000    0.00000    0.00000    0    orth

 Final alpha occupancy:   1   1   0   0   0   0   0   0
 Final beta  occupancy:   1   0   0   0   0   0   0   0

 !RHF STATE 1.2 Energy                 -1.875157062677
 Nuclear energy                         0.00000000
 One-electron energy                   -2.75439530
 Two-electron energy                    0.87923824
 Virial quotient                       -2.99777637
 !RHF STATE 1.2 Dipole moment           0.00000000     0.00000000     0.00000000
 Dipole moment /Debye                   0.00000000     0.00000000     0.00000000

 Orbital energies:

         1.1          2.1          3.1
     -0.392899     0.033530     0.086440

         1.2          2.2          3.2
     -0.210121     0.033015     0.176557

         1.3          2.3
      0.006638     0.042469

         1.4          2.4
      0.087179     0.258985

         1.5          2.5
      0.006638     0.042469

         1.6          2.6
      0.087179     0.258985

         1.7          2.7
      0.086440     0.266839

         1.8          2.8
      0.203266     0.572991

 HOMO      1.2    -0.210121 =      -5.7177eV
 LUMO      1.3     0.006638 =       0.1806eV
 LUMO-HOMO         0.216759 =       5.8983eV


 **********************************************************************************************************************************
 DATASETS  * FILE   NREC   LENGTH (MB)   RECORD NAMES
              1      20       37.53       500      610      700      900      950      970     1000      129      960     1100   
                                          VAR    BASINP    GEOM    SYMINP    ZMAT    AOBASIS   BASIS     P2S    ABASIS      S 
                                         1400     1410     1420     1200     1210     1080     1600     1650     1300     1700   
                                           T        V       ECP      H0       H01     AOSYM     SMH    MOLCAS    ERIS     OPER   

              2       5        3.93       200      700     1000      520     4202   
                                        OPTIONS   GEOM     BASIS   MCVARS     RHF  

 PROGRAMS   *        TOTAL       RHF       INT
 CPU TIMES  *         4.34      0.31      3.86
 REAL TIME  *         5.34 SEC
 DISK USED  *       131.99 MB      
 **********************************************************************************************************************************

1PROGRAM * MULTI (Direct Multiconfiguration SCF)       Authors: P.J. Knowles, H.-J. Werner (1984)     S.T. Elbert (1988)


 Number of closed-shell orbitals:   1 (   1   0   0   0   0   0   0   0 )
 Number of active  orbitals:        3 (   0   1   1   0   1   0   0   0 )
 Number of external orbitals:     158 (  39  26  26  11  26  11  11   8 )

 State symmetry 1

 Number of electrons:     1    Spin symmetry=Doublet   Space symmetry=2
 Number of states:        1
 Number of CSFs:          1   (1 determinants, 3 intermediate states)

 State symmetry 2

 Number of electrons:     1    Spin symmetry=Doublet   Space symmetry=3
 Number of states:        1
 Number of CSFs:          1   (1 determinants, 3 intermediate states)

 State symmetry 3

 Number of electrons:     1    Spin symmetry=Doublet   Space symmetry=5
 Number of states:        1
 Number of CSFs:          1   (1 determinants, 3 intermediate states)

 Molecular orbitals read from record     4202.2  Type=RHF/CANONICAL (state 1.2)
 *** IN SYMMETRY 1 ORBITAL  1 SYMMETRY CONTAMINATION OF 0.123D-01 HAS BEEN REMOVED

 EXTRA SYMMETRY OF MOS IN SYMMETRY 1:   1 1 2 3 1 3 2 4 5 6   2 3 1 4 5 6 2 3 1 4   5 6 2 3 1 1 1 1 1 1   1 1 1 1 1 1 1 1 1 1
 *** IN SYMMETRY 2 ORBITAL  1 SYMMETRY CONTAMINATION OF 0.457D-03 HAS BEEN REMOVED
 EXTRA SYMMETRY OF MOS IN SYMMETRY 2:   1 1 1 2 3 2 3 1 2 3   5 6 4 1 2 3 5 6 4 1   1 1 1 1 1 1 1
 *** IN SYMMETRY 3 ORBITAL  1 SYMMETRY CONTAMINATION OF 0.111D-01 HAS BEEN REMOVED
 EXTRA SYMMETRY OF MOS IN SYMMETRY 3:   1 1 1 2 3 2 3 1 2 4   3 5 6 1 2 3 4 5 6 1   1 1 1 1 1 1 1
 EXTRA SYMMETRY OF MOS IN SYMMETRY 4:   1 1 2 3 1 2 3 1 2 3   1
 *** IN SYMMETRY 5 ORBITAL  1 SYMMETRY CONTAMINATION OF 0.127D-01 HAS BEEN REMOVED
 EXTRA SYMMETRY OF MOS IN SYMMETRY 5:   1 1 1 2 3 2 3 1 2 6   3 5 4 1 2 3 6 5 4 1   1 1 1 1 1 1 1
 EXTRA SYMMETRY OF MOS IN SYMMETRY 6:   1 1 3 2 1 3 2 1 3 2   1
 EXTRA SYMMETRY OF MOS IN SYMMETRY 7:   1 1 2 3 1 2 3 1 2 3   1
 EXTRA SYMMETRY OF MOS IN SYMMETRY 8:   1 1 1 3 2 1 3 2

 Wavefunction dump at record             5202.2

 Convergence thresholds  0.10E-01 (gradient)  0.10E-05 (energy)  0.10E-02 (step length)

 Weight factors for state symmetry  1:    0.33333
 Weight factors for state symmetry  2:    0.33333
 Weight factors for state symmetry  3:    0.33333

 Number of orbital rotations:      117   (     0 Core/Active     39 Core/Virtual   0 Active/Active     78 Active/Virtual)
 Total number of variables:        120


 ITER. MIC  NCI  NEG     ENERGY(VAR)     ENERGY(PROJ)   ENERGY CHANGE     GRAD(0)  GRAD(ORB)   GRAD(CI)     STEP       TIME

   1   31   12    0      -1.84426957      -1.87512081   -0.03085124    0.04544753 0.00000000 0.00000000  0.80D+00      0.12
   2   15   12    0      -1.87502678      -1.87507489   -0.00004810    0.00729647 0.00000000 0.00000000  0.80D-02      0.23
   3   15   12    0      -1.87507493      -1.87507493   -0.00000000    0.00001225 0.00000000 0.00000000  0.29D-04      0.34

 ** WVFN ****  CONVERGENCE REACHED, FINAL GRADIENT:  0.63D-10



 Results for state 1.2
 =====================

 !MCSCF STATE 1.2 Energy               -1.875074925696
 Nuclear energy                         0.00000000
 Kinetic energy                         0.62548962
 One electron energy                   -2.75450513
 Two electron energy                    0.87943021
 Virial ratio                           3.99777145

 !MCSCF STATE 1.2 Dipole moment         0.00000000     0.00000000     0.00000000
 Dipole moment /Debye                   0.00000000     0.00000000     0.00000000



 Results for state 1.3
 =====================

 !MCSCF STATE 1.3 Energy               -1.875074925696
 Nuclear energy                         0.00000000
 Kinetic energy                         0.62548962
 One electron energy                   -2.75450513
 Two electron energy                    0.87943021
 Virial ratio                           3.99777145

 !MCSCF STATE 1.3 Dipole moment         0.00000000     0.00000000     0.00000000
 Dipole moment /Debye                   0.00000000     0.00000000     0.00000000



 Results for state 1.5
 =====================

 !MCSCF STATE 1.5 Energy               -1.875074925696
 Nuclear energy                         0.00000000
 Kinetic energy                         0.62548962
 One electron energy                   -2.75450513
 Two electron energy                    0.87943021
 Virial ratio                           3.99777145

 !MCSCF STATE 1.5 Dipole moment         0.00000000     0.00000000     0.00000000
 Dipole moment /Debye                   0.00000000     0.00000000     0.00000000

 State-averaged charge density matrix saved on record  5202.2 (density set 1)


 NATURAL ORBITALS (state averaged)
 =================================

   Orb     Occ        Energy       Coefficients

                                   1 1s      1 1s      1 1s      1 1s      1 1s      1 1s      1 1s      1 1s      1 1s      1 1s   
                                   1 1s      1 1s      1 1s      1 1s      1 1s      1 1s      1 1s      1 1s      1 1s      1 1s   
                                   1 1s      1 3d0     1 3d2+    1 3d0     1 3d2+    1 3d0     1 3d2+    1 3d0     1 3d2+    1 3d0  
                                   1 3d2+    1 5g0     1 5g4+    1 5g2+    1 5g0     1 5g4+    1 5g2+    1 5g0     1 5g4+    1 5g2+ 


   1.1  2.00000    -0.392837     0.000000 -0.000000  0.000000 -0.000000  0.000001 -0.000004  0.000014 -0.000047  0.000141 -0.000398
                                 0.001045 -0.002542  0.005935 -0.017551  0.059426 -0.129566 -0.179165  0.345192  0.605064  0.237732
                                 0.000199  0.000000  0.000000  0.000000  0.000000  0.000000  0.000000  0.000000  0.000000  0.000000
                                 0.000000  0.000000  0.000000  0.000000  0.000000  0.000000  0.000000  0.000000  0.000000  0.000000

                                   1 2px     1 2px     1 2px     1 2px     1 2px     1 2px     1 2px     1 2px     1 2px     1 2px  
                                   1 2px     1 2px     1 2px     1 4f1+    1 4f3+    1 4f1+    1 4f3+    1 4f1+    1 4f3+    1 4f1+ 
                                   1 4f3+    1 6h1+    1 6h3+    1 6h5+    1 6h1+    1 6h3+    1 6h5+ 

   1.2  0.33333     0.000820     0.000001 -0.000013  0.000068 -0.000291  0.001067 -0.003577  0.010415 -0.033710 -0.008248  0.291872
                                 0.542651  0.298910  0.005474  0.000000  0.000000  0.000000  0.000000  0.000000  0.000000  0.000000
                                 0.000000  0.000000  0.000000  0.000000  0.000000  0.000000  0.000000

                                   1 2py     1 2py     1 2py     1 2py     1 2py     1 2py     1 2py     1 2py     1 2py     1 2py  
                                   1 2py     1 2py     1 2py     1 4f1-    1 4f3-    1 4f1-    1 4f3-    1 4f1-    1 4f3-    1 4f1- 
                                   1 4f3-    1 6h1-    1 6h3-    1 6h5-    1 6h1-    1 6h3-    1 6h5- 

   1.3  0.33333     0.000820     0.000001 -0.000013  0.000068 -0.000291  0.001067 -0.003577  0.010415 -0.033710 -0.008248  0.291872
                                 0.542651  0.298910  0.005474  0.000000  0.000000  0.000000  0.000000  0.000000  0.000000  0.000000
                                 0.000000  0.000000  0.000000  0.000000  0.000000  0.000000  0.000000

                                   1 2pz     1 2pz     1 2pz     1 2pz     1 2pz     1 2pz     1 2pz     1 2pz     1 2pz     1 2pz  
                                   1 2pz     1 2pz     1 2pz     1 4f0     1 4f2+    1 4f0     1 4f2+    1 4f0     1 4f2+    1 4f0  
                                   1 4f2+    1 6h2+    1 6h4+    1 6h0     1 6h2+    1 6h4+    1 6h0  

   1.5  0.33333     0.000820     0.000001 -0.000013  0.000068 -0.000291  0.001067 -0.003577  0.010415 -0.033710 -0.008248  0.291872
                                 0.542651  0.298910  0.005474  0.000000  0.000000  0.000000  0.000000  0.000000  0.000000  0.000000
                                 0.000000  0.000000  0.000000  0.000000  0.000000  0.000000  0.000000
 

 EXTRA SYMMETRY OF MOS IN SYMMETRY 1:   1 1 2 3 1 2 3 4 5 6   3 2 1 6 5 4 3 2 1 6   4 5 3 2 1 1 1 1 1 1   1 1 1 1 1 1 1 1 1 1
 EXTRA SYMMETRY OF MOS IN SYMMETRY 2:   1 1 1 3 2 3 2 1 3 2   6 5 4 1 3 2 6 4 5 1   1 1 1 1 1 1 1
 EXTRA SYMMETRY OF MOS IN SYMMETRY 3:   1 1 1 3 2 3 2 1 2 3   6 4 5 1 2 3 4 6 5 1   1 1 1 1 1 1 1
 EXTRA SYMMETRY OF MOS IN SYMMETRY 4:   1 1 2 3 1 2 3 1 3 2   1
 EXTRA SYMMETRY OF MOS IN SYMMETRY 5:   1 1 1 2 3 2 3 1 3 2   6 5 4 1 3 2 6 5 4 1   1 1 1 1 1 1 1
 EXTRA SYMMETRY OF MOS IN SYMMETRY 7:   1 1 3 2 1 3 2 1 3 2   1

 Natural orbital dump (state averaged) at molpro section  5202.2    (Orbital set 2)


 CI vector for state symmetry 1
 ==============================

 a 0 0           1.0000000

 TOTAL ENERGIES                        -1.87507493

 CI vector for state symmetry 2
 ==============================

 0 a 0           1.0000000

 TOTAL ENERGIES                        -1.87507493

 CI vector for state symmetry 3
 ==============================

 0 0 a           1.0000000

 TOTAL ENERGIES                        -1.87507493



 **********************************************************************************************************************************
 DATASETS  * FILE   NREC   LENGTH (MB)   RECORD NAMES
              1      21       38.05       500      610      700      900      950      970     1000      129      960     1100   
                                          VAR    BASINP    GEOM    SYMINP    ZMAT    AOBASIS   BASIS     P2S    ABASIS      S 
                                         1400     1410     1420     1200     1210     1080     1600     1650     1300     1700   
                                           T        V       ECP      H0       H01     AOSYM     SMH    MOLCAS    ERIS     OPER   
                                         1380   
                                         JKOP   

              2       6        6.56       200      700     1000      520     4202     5202   
                                        OPTIONS   GEOM     BASIS   MCVARS     RHF     MCSCF   

 PROGRAMS   *        TOTAL     MULTI       RHF       INT
 CPU TIMES  *         4.81      0.48      0.31      3.86
 REAL TIME  *         6.21 SEC
 DISK USED  *       131.99 MB      
 **********************************************************************************************************************************

1PROGRAM * RHF-SCF (OPEN SHELL)       Authors: W. Meyer, H.-J. Werner


 NUMBER OF ELECTRONS:       2+    1-    SPACE SYMMETRY=2    SPIN SYMMETRY: Doublet 
 CONVERGENCE THRESHOLDS:    1.00E-05 (Density)    1.00E-07 (Energy)
 MAX. NUMBER OF ITERATIONS:        0
 INTERPOLATION TYPE:            DIIS
 INTERPOLATION STEPS:              2 (START)      1 (STEP)
 LEVEL SHIFTS:                 -0.30 (CLOSED)  0.00 (OPEN) 


 Singly occupied orbitals:      1.2
 Molecular orbitals read from record     5202.2  Type=MCSCF/NATURAL  

 Molecular orbital dump at record        2101.2

 ITERATION    DDIFF          GRAD             ENERGY        2-EL.EN.            DIPOLE MOMENTS         DIIS   ORB.
    1      0.000D+00      0.000D+00        -1.87507493      1.758860    0.00000    0.00000    0.00000    0    start

 Final alpha occupancy:   1   1   0   0   0   0   0   0
 Final beta  occupancy:   1   0   0   0   0   0   0   0

 !RHF STATE 1.2 Energy                 -1.875074925696
 Nuclear energy                         0.00000000
 One-electron energy                   -2.75450513
 Two-electron energy                    0.87943021
 Virial quotient                       -2.99777145
 !RHF STATE 1.2 Dipole moment           0.00000000     0.00000000     0.00000000
 Dipole moment /Debye                   0.00000000     0.00000000     0.00000000

 Orbital energies:

         1.1          2.1          3.1
     -0.392837     0.035342     0.089406

         1.2          2.2          3.2
      0.000820     0.033211     0.185925

         1.3          2.3
      0.000820     0.033211

         1.4          2.4
      0.089406     0.272608

         1.5          2.5
      0.000820     0.033211

         1.6          2.6
      0.089406     0.272608

         1.7          2.7
      0.089406     0.272608

         1.8          2.8
      0.204697     0.578566

 HOMO      1.2     0.000820 =       0.0223eV
 LUMO      1.3     0.000820 =       0.0223eV
 LUMO-HOMO         0.000000 =       0.0000eV


 **********************************************************************************************************************************
 DATASETS  * FILE   NREC   LENGTH (MB)   RECORD NAMES
              1      21       38.05       500      610      700      900      950      970     1000      129      960     1100   
                                          VAR    BASINP    GEOM    SYMINP    ZMAT    AOBASIS   BASIS     P2S    ABASIS      S 
                                         1400     1410     1420     1200     1210     1080     1600     1650     1300     1700   
                                           T        V       ECP      H0       H01     AOSYM     SMH    MOLCAS    ERIS     OPER   
                                         1380   
                                         JKOP   

              2       7        9.27       200      700     1000      520     4202     5202     2101   
                                        OPTIONS   GEOM     BASIS   MCVARS     RHF     MCSCF     RHF  

 PROGRAMS   *        TOTAL       RHF     MULTI       RHF       INT
 CPU TIMES  *         4.91      0.09      0.48      0.31      3.86
 REAL TIME  *         6.37 SEC
 DISK USED  *       131.99 MB      
 **********************************************************************************************************************************
 SETTING SCF(1)         =        -1.87507493  AU                              
 SETTING _CC_NORM_MAX   =         2.00000000                                  


1PROGRAM * CCSD (Unrestricted open-shell coupled cluster)     Authors: C. Hampel, H.-J. Werner, 1991, M. Deegan, P.J. Knowles, 1992


 Convergence thresholds:  THRVAR = 1.00D-08  THRDEN = 1.00D-06

 CCSD(T)     terms to be evaluated (factor= 1.000)


 Number of closed-shell orbitals:   1 (   1   0   0   0   0   0   0   0 )
 Number of active  orbitals:        1 (   0   1   0   0   0   0   0   0 )
 Number of external orbitals:     160 (  39  26  27  11  27  11  11   8 )

 Memory could be reduced to 4.83 Mwords without degradation in triples

 Number of N-1 electron functions:               3
 Number of N-2 electron functions:               3
 Number of singly external CSFs:               105
 Number of doubly external CSFs:              9436
 Total number of CSFs:                        9541

 Molecular orbitals read from record     2101.2  Type=RHF/CANONICAL (state 1.2)

 Integral transformation finished. Total CPU:   0.15 sec, npass=  1  Memory used:   0.50 MW

 Starting RMP2 calculation

 ITER.      SQ.NORM     CORR.ENERGY   TOTAL ENERGY   ENERGY CHANGE        DEN1      VAR(S)    VAR(P)  DIIS     TIME
   1      1.03630978    -0.04479974    -1.91987466    -0.04479974    -0.00062330  0.70D-04  0.47D-03  1  1     0.15
   2      1.03785967    -0.04553127    -1.92060619    -0.00073153    -0.00000345  0.36D-06  0.25D-05  2  2     0.15
   3      1.03793105    -0.04555131    -1.92062624    -0.00002004    -0.00000002  0.97D-09  0.13D-07  3  3     0.15
   4      1.03793183    -0.04555142    -1.92062634    -0.00000011    -0.00000000  0.85D-11  0.71D-10  4  4     0.15

 Norm of t1 vector:      0.05561250      S-energy:    -0.00221755      T1 diagnostic:  0.00385675
 Norm of t2 vector:      0.18665231      P-energy:    -0.04333387
                                         Alpha-Beta:  -0.04019699
                                         Alpha-Alpha: -0.00313688
                                         Beta-Beta:    0.00000000

 Spin contamination <S**2-Sz**2-Sz>     0.01131995
  Reference energy                     -1.875074925696
  RHF-RMP2 correlation energy          -0.045551415536
 !RHF-RMP2 energy                      -1.920626341233

 Starting UCCSD calculation

 ITER.      SQ.NORM     CORR.ENERGY   TOTAL ENERGY   ENERGY CHANGE        DEN1      VAR(S)    VAR(P)  DIIS     TIME
   1      1.05003088    -0.05005597    -1.92513089    -0.05005597    -0.00446281  0.40D-03  0.34D-02  1  1     0.26
   2      1.07028740    -0.05653306    -1.93160798    -0.00647709    -0.00031607  0.38D-04  0.22D-03  2  2     0.36
   3      1.07607421    -0.05774032    -1.93281524    -0.00120726    -0.00003160  0.64D-05  0.21D-04  3  3     0.46
   4      1.07774434    -0.05800735    -1.93308228    -0.00026703    -0.00000316  0.76D-06  0.21D-05  4  4     0.55
   5      1.07810151    -0.05805459    -1.93312952    -0.00004724    -0.00000025  0.97D-07  0.15D-06  5  5     0.65
   6      1.07811009    -0.05804926    -1.93312419     0.00000533    -0.00000002  0.15D-07  0.12D-07  6  6     0.74
   7      1.07813273    -0.05805407    -1.93312899    -0.00000480    -0.00000000  0.25D-08  0.13D-08  6  3     0.83
   8      1.07813144    -0.05805325    -1.93312818     0.00000081    -0.00000000  0.35D-09  0.16D-09  6  1     0.93

 Norm of t1 vector:      0.07349642      S-energy:    -0.00252804      T1 diagnostic:  0.01489120
                                                                       D1 diagnostic:  0.01830108
 Norm of t2 vector:      0.26968448      P-energy:    -0.05552521
                                         Alpha-Beta:  -0.05215343
                                         Alpha-Alpha: -0.00337178
                                         Beta-Beta:    0.00000000

 Doubles amplitudes (print threshold =  0.500E-01):

         I         J         SYM. A    SYM. B    A         B      T(IJ, AB) [Alpha-Beta]

         1         1         3         3         1         1     -0.11809649
         1         1         5         5         1         1     -0.11809644
         2         1         1         2         6         1     -0.06058859
         2         1         4         3         2         1     -0.05999679
         2         1         6         5         2         1     -0.05999682

 Spin contamination <S**2-Sz**2-Sz>     0.00192154

 Memory could be reduced to 4.91 Mwords without degradation in triples
 

 RESULTS
 =======

  Reference energy                     -1.875074925696
  UCCSD singles energy                 -0.002528039994
  UCCSD pair energy                    -0.055525212026
  UCCSD correlation energy             -0.058053252020
  Triples (T) contribution             -0.001637217686
  Total correlation energy             -0.059690469706
 
  RHF-UCCSD energy                     -1.933128177717
  RHF-UCCSD[T] energy                  -1.934680832630
  RHF-UCCSD-T energy                   -1.934779948143
 !RHF-UCCSD(T) energy                  -1.934765395403

 Program statistics:

 Available memory in ccsd:               511999848
 Min. memory needed in ccsd:                137345
 Max. memory used in ccsd:                  141393
 Max. memory used in cckext:                172983 ( 8 integral passes)
 Max. memory used in cckint:                501472 ( 1 integral passes)



 **********************************************************************************************************************************
 DATASETS  * FILE   NREC   LENGTH (MB)   RECORD NAMES
              1      21       38.05       500      610      700      900      950      970     1000      129      960     1100   
                                          VAR    BASINP    GEOM    SYMINP    ZMAT    AOBASIS   BASIS     P2S    ABASIS      S 
                                         1400     1410     1420     1200     1210     1080     1600     1650     1300     1700   
                                           T        V       ECP      H0       H01     AOSYM     SMH    MOLCAS    ERIS     OPER   
                                         1380   
                                         JKOP   

              2       7        9.27       200      700     1000      520     4202     5202     2101   
                                        OPTIONS   GEOM     BASIS   MCVARS     RHF     MCSCF     RHF  

 PROGRAMS   *        TOTAL  UCCSD(T)       RHF     MULTI       RHF       INT
 CPU TIMES  *         5.97      1.06      0.09      0.48      0.31      3.86
 REAL TIME  *         7.71 SEC
 DISK USED  *       131.99 MB      
 **********************************************************************************************************************************
 SETTING CCSD(1)        =        -1.93476540  AU                              

 DO I                   =         2.00000000   

 Running procedure=IP1

1PROGRAM * RHF-SCF (CLOSED SHELL)       Authors: W. Meyer, H.-J. Werner


 NUMBER OF ELECTRONS:       1+    1-    SPACE SYMMETRY=1    SPIN SYMMETRY: Singlet 
 CONVERGENCE THRESHOLDS:    1.00E-05 (Density)    1.00E-07 (Energy)
 MAX. NUMBER OF ITERATIONS:       60
 INTERPOLATION TYPE:            DIIS
 INTERPOLATION STEPS:              2 (START)      1 (STEP)
 LEVEL SHIFTS:                  0.00 (CLOSED)  0.00 (OPEN) 



 Orbital guess generated from atomic densities. Full valence occupancy:    1   1   1   0   1   0   0   0


 Molecular orbital dump at record        2102.2

 ITERATION    DDIFF          GRAD             ENERGY        2-EL.EN.            DIPOLE MOMENTS         DIIS   ORB.
    1      0.000D+00      0.000D+00        -1.66366117      0.692708    0.00000    0.00000    0.00000    0    start
    2      0.000D+00      0.794D-02        -1.67224619      0.731138    0.00000    0.00000    0.00000    1    diag
    3      0.568D-02      0.186D-02        -1.67279427      0.742588    0.00000    0.00000    0.00000    2    diag
    4      0.221D-02      0.917D-04        -1.67279543      0.742951    0.00000    0.00000    0.00000    3    diag
    5      0.215D-03      0.479D-05        -1.67279543      0.742928    0.00000    0.00000    0.00000    4    diag
    6      0.799D-05      0.394D-06        -1.67279543      0.742930    0.00000    0.00000    0.00000    0    orth

 Final occupancy:   1   0   0   0   0   0   0   0

 !RHF STATE 1.1 Energy                 -1.672795428341
 Nuclear energy                         0.00000000
 One-electron energy                   -2.04426041
 Two-electron energy                    0.37146498
 Virial quotient                       -3.86299898
 !RHF STATE 1.1 Dipole moment           0.00000000     0.00000000     0.00000000
 Dipole moment /Debye                   0.00000000     0.00000000     0.00000000

 Orbital energies:

         1.1          2.1          3.1
     -0.650665    -0.096186    -0.049001

         1.2          2.2
     -0.195523    -0.065091

         1.3          2.3
     -0.195523    -0.065091

         1.4          2.4
     -0.049001     0.078321

         1.5          2.5
     -0.195523    -0.065091

         1.6          2.6
     -0.049001     0.078321

         1.7          2.7
     -0.049001     0.078321

         1.8          2.8
      0.056522     0.371520

 HOMO      1.1    -0.650665 =     -17.7055eV
 LUMO      1.2    -0.195523 =      -5.3205eV
 LUMO-HOMO         0.455142 =      12.3850eV


 **********************************************************************************************************************************
 DATASETS  * FILE   NREC   LENGTH (MB)   RECORD NAMES
              1      21       38.05       500      610      700      900      950      970     1000      129      960     1100   
                                          VAR    BASINP    GEOM    SYMINP    ZMAT    AOBASIS   BASIS     P2S    ABASIS      S 
                                         1400     1410     1420     1200     1210     1080     1600     1650     1300     1700   
                                           T        V       ECP      H0       H01     AOSYM     SMH    MOLCAS    ERIS     OPER   
                                         1380   
                                         JKOP   

              2       8       11.90       200      700     1000      520     4202     5202     2101     2102   
                                        OPTIONS   GEOM     BASIS   MCVARS     RHF     MCSCF     RHF      RHF  

 PROGRAMS   *        TOTAL       RHF  UCCSD(T)       RHF     MULTI       RHF       INT
 CPU TIMES  *         6.30      0.33      1.06      0.09      0.48      0.31      3.86
 REAL TIME  *         8.13 SEC
 DISK USED  *       131.99 MB      
 **********************************************************************************************************************************
 SETTING SCF(2)         =        -1.67279543  AU                              
 SETTING _CC_NORM_MAX   =         2.00000000                                  


1PROGRAM * CCSD (Unrestricted open-shell coupled cluster)     Authors: C. Hampel, H.-J. Werner, 1991, M. Deegan, P.J. Knowles, 1992


 Convergence thresholds:  THRVAR = 1.00D-08  THRDEN = 1.00D-06

 CCSD(T)     terms to be evaluated (factor= 1.000)


 Number of closed-shell orbitals:   1 (   1   0   0   0   0   0   0   0 )
 Number of external orbitals:     161 (  39  27  27  11  27  11  11   8 )

 Memory could be reduced to 4.30 Mwords without degradation in triples

 Number of N-1 electron functions:               2
 Number of N-2 electron functions:               1
 Number of singly external CSFs:                78
 Number of doubly external CSFs:              4182
 Total number of CSFs:                        4260

 Molecular orbitals read from record     2102.2  Type=RHF/CANONICAL (state 1.1)

 Integral transformation finished. Total CPU:   0.10 sec, npass=  1  Memory used:   0.38 MW

 Starting RMP2 calculation

 ITER.      SQ.NORM     CORR.ENERGY   TOTAL ENERGY   ENERGY CHANGE        DEN1      VAR(S)    VAR(P)  DIIS     TIME
   1      1.02394710    -0.03085837    -1.70365379    -0.03085837    -0.00054103  0.59D-13  0.43D-03  1  1     0.11
   2      1.02514049    -0.03149315    -1.70428858    -0.00063479    -0.00000081  0.31D-15  0.57D-06  2  2     0.12
   3      1.02516767    -0.03150257    -1.70429800    -0.00000942    -0.00000000  0.25D-17  0.83D-09  3  3     0.12
   4      1.02516793    -0.03150260    -1.70429803    -0.00000003    -0.00000000  0.31D-19  0.19D-11  4  4     0.12

 Norm of t1 vector:      0.00000148      S-energy:    -0.00000000      T1 diagnostic:  0.00000074
 Norm of t2 vector:      0.15864404      P-energy:    -0.03150260
                                         Alpha-Beta:  -0.03150260
                                         Alpha-Alpha:  0.00000000
                                         Beta-Beta:    0.00000000

 Spin contamination <S**2-Sz**2-Sz>     0.00000000
  Reference energy                     -1.672795428341
  RHF-RMP2 correlation energy          -0.031502601917
 !RHF-RMP2 energy                      -1.704298030258

 Starting UCCSD calculation

 ITER.      SQ.NORM     CORR.ENERGY   TOTAL ENERGY   ENERGY CHANGE        DEN1      VAR(S)    VAR(P)  DIIS     TIME
   1      1.03345635    -0.03430988    -1.70710531    -0.03430988    -0.00377831  0.95D-04  0.28D-02  1  1     0.20
   2      1.05235530    -0.04044073    -1.71323615    -0.00613084    -0.00029811  0.67D-05  0.20D-03  2  2     0.26
   3      1.05890256    -0.04196750    -1.71476293    -0.00152677    -0.00001477  0.31D-07  0.76D-05  3  3     0.32
   4      1.05954581    -0.04206396    -1.71485938    -0.00009646    -0.00000051  0.59D-07  0.23D-06  4  4     0.37
   5      1.05966566    -0.04208771    -1.71488313    -0.00002375    -0.00000001  0.27D-08  0.52D-08  5  5     0.42
   6      1.05965766    -0.04208474    -1.71488017     0.00000296    -0.00000000  0.22D-09  0.25D-09  6  6     0.48
   7      1.05966147    -0.04208555    -1.71488098    -0.00000081    -0.00000000  0.12D-10  0.23D-10  6  1     0.53

 Norm of t1 vector:      0.02156055      S-energy:    -0.00000002      T1 diagnostic:  0.01078028
                                                                       D1 diagnostic:  0.01524561
 Norm of t2 vector:      0.24330355      P-energy:    -0.04208554
                                         Alpha-Beta:  -0.04208554
                                         Alpha-Alpha:  0.00000000
                                         Beta-Beta:    0.00000000

 Doubles amplitudes (print threshold =  0.500E-01):

         I         J         SYM. A    SYM. B    A         B      T(IJ, AB) [Alpha-Beta]

         1         1         2         2         1         1     -0.11106825
         1         1         3         3         1         1     -0.11106825
         1         1         5         5         1         1     -0.11106825

 Spin contamination <S**2-Sz**2-Sz>     0.00000000

 Memory could be reduced to 4.31 Mwords without degradation in triples
 

 RESULTS
 =======

  Reference energy                     -1.672795428341
  UCCSD singles energy                 -0.000000017178
  UCCSD pair energy                    -0.042085535831
  UCCSD correlation energy             -0.042085553009
  Triples (T) contribution              0.000000000000
  Total correlation energy             -0.042085553009
 
  RHF-UCCSD energy                     -1.714880981350
  RHF-UCCSD[T] energy                  -1.714880981350
  RHF-UCCSD-T energy                   -1.714880981350
 !RHF-UCCSD(T) energy                  -1.714880981350

 Program statistics:

 Available memory in ccsd:               511999882
 Min. memory needed in ccsd:                119261
 Max. memory used in ccsd:                  119261
 Max. memory used in cckext:                158518 ( 7 integral passes)
 Max. memory used in cckint:                375569 ( 1 integral passes)



 **********************************************************************************************************************************
 DATASETS  * FILE   NREC   LENGTH (MB)   RECORD NAMES
              1      21       38.05       500      610      700      900      950      970     1000      129      960     1100   
                                          VAR    BASINP    GEOM    SYMINP    ZMAT    AOBASIS   BASIS     P2S    ABASIS      S 
                                         1400     1410     1420     1200     1210     1080     1600     1650     1300     1700   
                                           T        V       ECP      H0       H01     AOSYM     SMH    MOLCAS    ERIS     OPER   
                                         1380   
                                         JKOP   

              2       8       11.90       200      700     1000      520     4202     5202     2101     2102   
                                        OPTIONS   GEOM     BASIS   MCVARS     RHF     MCSCF     RHF      RHF  

 PROGRAMS   *        TOTAL  UCCSD(T)       RHF  UCCSD(T)       RHF     MULTI       RHF       INT
 CPU TIMES  *         6.90      0.60      0.33      1.06      0.09      0.48      0.31      3.86
 REAL TIME  *         8.96 SEC
 DISK USED  *       131.99 MB      
 **********************************************************************************************************************************
 SETTING CCSD(2)        =        -1.71488098  AU                              

 DO I                   =         3.00000000   

 Running procedure=IP2

1PROGRAM * RHF-SCF (OPEN SHELL)       Authors: W. Meyer, H.-J. Werner


 NUMBER OF ELECTRONS:       1+    0-    SPACE SYMMETRY=1    SPIN SYMMETRY: Doublet 
 CONVERGENCE THRESHOLDS:    1.00E-05 (Density)    1.00E-07 (Energy)
 MAX. NUMBER OF ITERATIONS:       60
 INTERPOLATION TYPE:            DIIS
 INTERPOLATION STEPS:              2 (START)      1 (STEP)
 LEVEL SHIFTS:                 -0.30 (CLOSED)  0.00 (OPEN) 



 Orbital guess generated from atomic densities. Full valence occupancy:    1   1   1   0   1   0   0   0


 Molecular orbital dump at record        2103.2

 ITERATION    DDIFF          GRAD             ENERGY        2-EL.EN.            DIPOLE MOMENTS         DIIS   ORB.
    1      0.000D+00      0.000D+00        -1.00500758      0.000000    0.00000    0.00000    0.00000    0    start
    2      0.000D+00      0.952D-02        -1.02800981      0.000000    0.00000    0.00000    0.00000    1    diag,B
    3      0.632D-02      0.290D-02        -1.03018496     -0.000000    0.00000    0.00000    0.00000    2    diag,B
    4      0.337D-02      0.897D-04        -1.03018624     -0.000000    0.00000    0.00000    0.00000    3    diag,B
    5      0.187D-03      0.185D-05        -1.03018624     -0.000000    0.00000    0.00000    0.00000    4    diag,B
    6      0.206D-05      0.191D-06        -1.03018624     -0.000000    0.00000    0.00000    0.00000    0    orth

 Final alpha occupancy:   1   0   0   0   0   0   0   0
 Final beta  occupancy:   0   0   0   0   0   0   0   0

 !RHF STATE 1.1 Energy                 -1.030186235488
 Nuclear energy                         0.00000000
 One-electron energy                   -1.03018624
 Two-electron energy                   -0.00000000
 Virial quotient                       -3.92122737
 !RHF STATE 1.1 Dipole moment           0.00000000     0.00000000     0.00000000
 Dipole moment /Debye                   0.00000000     0.00000000     0.00000000

 Orbital energies:

         1.1          2.1          3.1
     -1.030186    -0.268371    -0.244967

         1.2          2.2
     -0.507781    -0.205806

         1.3          2.3
     -0.507781    -0.205806

         1.4          2.4
     -0.244967    -0.120338

         1.5          2.5
     -0.507781    -0.205806

         1.6          2.6
     -0.244967    -0.120338

         1.7          2.7
     -0.244967    -0.120338

         1.8          2.8
     -0.102826     0.143203

 HOMO      1.1    -1.030186 =     -28.0328eV
 LUMO      1.2    -0.507781 =     -13.8174eV
 LUMO-HOMO         0.522405 =      14.2154eV


 **********************************************************************************************************************************
 DATASETS  * FILE   NREC   LENGTH (MB)   RECORD NAMES
              1      21       38.05       500      610      700      900      950      970     1000      129      960     1100   
                                          VAR    BASINP    GEOM    SYMINP    ZMAT    AOBASIS   BASIS     P2S    ABASIS      S 
                                         1400     1410     1420     1200     1210     1080     1600     1650     1300     1700   
                                           T        V       ECP      H0       H01     AOSYM     SMH    MOLCAS    ERIS     OPER   
                                         1380   
                                         JKOP   

              2       9       14.60       200      700     1000      520     4202     5202     2101     2102     2103   
                                        OPTIONS   GEOM     BASIS   MCVARS     RHF     MCSCF     RHF      RHF      RHF  

 PROGRAMS   *        TOTAL       RHF  UCCSD(T)       RHF  UCCSD(T)       RHF     MULTI       RHF       INT
 CPU TIMES  *         7.23      0.33      0.60      0.33      1.06      0.09      0.48      0.31      3.86
 REAL TIME  *         9.39 SEC
 DISK USED  *       131.99 MB      
 **********************************************************************************************************************************
 SETTING SCF(3)         =        -1.03018624  AU                              
 SETTING _CC_NORM_MAX   =         2.00000000                                  


1PROGRAM * CCSD (Unrestricted open-shell coupled cluster)     Authors: C. Hampel, H.-J. Werner, 1991, M. Deegan, P.J. Knowles, 1992


 Convergence thresholds:  THRVAR = 1.00D-08  THRDEN = 1.00D-06

 CCSD(T)     terms to be evaluated (factor= 1.000)


 Number of active  orbitals:        1 (   1   0   0   0   0   0   0   0 )
 Number of external orbitals:     161 (  39  27  27  11  27  11  11   8 )

 Memory could be reduced to 4.29 Mwords without degradation in triples

 Number of N-1 electron functions:               1
 Number of N-2 electron functions:               0
 Number of singly external CSFs:                40
 Number of doubly external CSFs:                 0
 Total number of CSFs:                          40

 Molecular orbitals read from record     2103.2  Type=RHF/CANONICAL (state 1.1)

 Integral transformation finished. Total CPU:   0.11 sec, npass=  1  Memory used:   0.38 MW

 Starting RMP2 calculation

 ITER.      SQ.NORM     CORR.ENERGY   TOTAL ENERGY   ENERGY CHANGE        DEN1      VAR(S)    VAR(P)  DIIS     TIME
   1      1.00000000    -0.00000000    -1.03018624    -0.00000000    -0.00000000  0.39D-15  0.00D+00  1  1     0.12

 Norm of t1 vector:      0.00000021      S-energy:    -0.00000000      T1 diagnostic:  0.00000015
 Norm of t2 vector:      0.00000000      P-energy:     0.00000000
                                         Alpha-Beta:   0.00000000
                                         Alpha-Alpha:  0.00000000
                                         Beta-Beta:    0.00000000

 Spin contamination <S**2-Sz**2-Sz>     0.00000000
  Reference energy                     -1.030186235488
  RHF-RMP2 correlation energy          -0.000000000000
 !RHF-RMP2 energy                      -1.030186235488

 Starting UCCSD calculation

 ITER.      SQ.NORM     CORR.ENERGY   TOTAL ENERGY   ENERGY CHANGE        DEN1      VAR(S)    VAR(P)  DIIS     TIME
   1      1.00000000    -0.00000000    -1.03018624    -0.00000000    -0.00000000  0.24D-14  0.00D+00  1  1     0.13

 Norm of t1 vector:      0.00000024      S-energy:    -0.00000000      T1 diagnostic:  0.00000017
                                                                       D1 diagnostic:  0.00000017
 Norm of t2 vector:      0.00000000      P-energy:     0.00000000
                                         Alpha-Beta:   0.00000000
                                         Alpha-Alpha:  0.00000000
                                         Beta-Beta:    0.00000000

 Spin contamination <S**2-Sz**2-Sz>     0.00000000

 Memory could be reduced to 4.37 Mwords without degradation in triples
 

 RESULTS
 =======

  Reference energy                     -1.030186235488
  UCCSD singles energy                 -0.000000000000
  UCCSD pair energy                     0.000000000000
  UCCSD correlation energy             -0.000000000000
  Triples (T) contribution              0.000000000000
  Total correlation energy             -0.000000000000
 
  RHF-UCCSD energy                     -1.030186235488
  RHF-UCCSD[T] energy                  -1.030186235488
  RHF-UCCSD-T energy                   -1.030186235488
 !RHF-UCCSD(T) energy                  -1.030186235488

 Program statistics:

 Available memory in ccsd:               511999882
 Min. memory needed in ccsd:                112113
 Max. memory used in ccsd:                  112113
 Max. memory used in cckext:                149906 ( 1 integral passes)
 Max. memory used in cckint:                375651 ( 1 integral passes)



 **********************************************************************************************************************************
 DATASETS  * FILE   NREC   LENGTH (MB)   RECORD NAMES
              1      21       38.05       500      610      700      900      950      970     1000      129      960     1100   
                                          VAR    BASINP    GEOM    SYMINP    ZMAT    AOBASIS   BASIS     P2S    ABASIS      S 
                                         1400     1410     1420     1200     1210     1080     1600     1650     1300     1700   
                                           T        V       ECP      H0       H01     AOSYM     SMH    MOLCAS    ERIS     OPER   
                                         1380   
                                         JKOP   

              2       9       14.60       200      700     1000      520     4202     5202     2101     2102     2103   
                                        OPTIONS   GEOM     BASIS   MCVARS     RHF     MCSCF     RHF      RHF      RHF  

 PROGRAMS   *        TOTAL  UCCSD(T)       RHF  UCCSD(T)       RHF  UCCSD(T)       RHF     MULTI       RHF       INT
 CPU TIMES  *         7.44      0.20      0.33      0.60      0.33      1.06      0.09      0.48      0.31      3.86
 REAL TIME  *         9.74 SEC
 DISK USED  *       131.99 MB      
 **********************************************************************************************************************************
 SETTING CCSD(3)        =        -1.03018624  AU                              

 DO I                   =         4.00000000   

 Running procedure=EA

1PROGRAM * RHF-SCF (OPEN SHELL)       Authors: W. Meyer, H.-J. Werner


 NUMBER OF ELECTRONS:       3+    1-    SPACE SYMMETRY=4    SPIN SYMMETRY: Triplet 
 CONVERGENCE THRESHOLDS:    1.00E-05 (Density)    1.00E-07 (Energy)
 MAX. NUMBER OF ITERATIONS:       60
 INTERPOLATION TYPE:            DIIS
 INTERPOLATION STEPS:              2 (START)      1 (STEP)
 LEVEL SHIFTS:                 -0.30 (CLOSED)  0.00 (OPEN) 


 Singly occupied orbitals:      1.2       1.3
 Orbital guess generated from atomic densities. Full valence occupancy:    1   1   1   0   1   0   0   0


 Molecular orbital dump at record        4202.2

 ITERATION    DDIFF          GRAD             ENERGY        2-EL.EN.            DIPOLE MOMENTS         DIIS   ORB.
    1      0.000D+00      0.000D+00        -1.87311532      2.984863    0.00000    0.00000    0.00000    0    start
    2      0.000D+00      0.275D-02        -1.87643873      2.880305    0.00000    0.00000    0.00000    1    diag,B
    3      0.256D-02      0.108D-02        -1.87703232      2.840166    0.00000    0.00000    0.00000    2    diag,B
    4      0.171D-02      0.414D-03        -1.87715163      2.836549    0.00000    0.00000    0.00000    3    diag,B
    5      0.864D-03      0.121D-03        -1.87716667      2.838963    0.00000    0.00000    0.00000    4    diag,B
    6      0.334D-03      0.298D-04        -1.87716810      2.840796    0.00000    0.00000    0.00000    5    diag,B
    7      0.144D-03      0.980D-05        -1.87716822      2.841104    0.00000    0.00000    0.00000    6    fixocc
    8      0.274D-04      0.353D-05        -1.87716824      2.841418    0.00000    0.00000    0.00000    7    diag,B
    9      0.188D-04      0.633D-06        -1.87716824      2.841385    0.00000    0.00000    0.00000    8    diag,B
   10      0.248D-05      0.165D-06        -1.87716824      2.841386    0.00000    0.00000    0.00000    0    orth

 Final alpha occupancy:   1   1   1   0   0   0   0   0
 Final beta  occupancy:   1   0   0   0   0   0   0   0

 !RHF STATE 1.4 Energy                 -1.877168241233
 Nuclear energy                         0.00000000
 One-electron energy                   -3.29786111
 Two-electron energy                    1.42069287
 Virial quotient                       -2.77200781
 !RHF STATE 1.4 Dipole moment           0.00000000     0.00000000     0.00000000
 Dipole moment /Debye                   0.00000000     0.00000000     0.00000000

 Orbital energies:

         1.1          2.1          3.1
     -0.207869     0.138090     0.199063

         1.2          2.2          3.2
     -0.020369     0.124930     0.322856

         1.3          2.3          3.3
     -0.020369     0.124930     0.322856

         1.4          2.4
      0.199063     0.411342

         1.5          2.5
      0.110905     0.177908

         1.6          2.6
      0.200506     0.416548

         1.7          2.7
      0.200506     0.416548

         1.8          2.8
      0.332426     0.737683

 HOMO      1.2    -0.020369 =      -0.5543eV
 LUMO      1.5     0.110905 =       3.0179eV
 LUMO-HOMO         0.131274 =       3.5721eV


 **********************************************************************************************************************************
 DATASETS  * FILE   NREC   LENGTH (MB)   RECORD NAMES
              1      21       38.05       500      610      700      900      950      970     1000      129      960     1100   
                                          VAR    BASINP    GEOM    SYMINP    ZMAT    AOBASIS   BASIS     P2S    ABASIS      S 
                                         1400     1410     1420     1200     1210     1080     1600     1650     1300     1700   
                                           T        V       ECP      H0       H01     AOSYM     SMH    MOLCAS    ERIS     OPER   
                                         1380   
                                         JKOP   

              2       9       14.60       200      700     1000      520     4202     5202     2101     2102     2103   
                                        OPTIONS   GEOM     BASIS   MCVARS     RHF     MCSCF     RHF      RHF      RHF  

 PROGRAMS   *        TOTAL       RHF  UCCSD(T)       RHF  UCCSD(T)       RHF  UCCSD(T)       RHF     MULTI       RHF       INT
 CPU TIMES  *         7.93      0.49      0.20      0.33      0.60      0.33      1.06      0.09      0.48      0.31      3.86
 REAL TIME  *        10.37 SEC
 DISK USED  *       131.99 MB      
 **********************************************************************************************************************************

1PROGRAM * MULTI (Direct Multiconfiguration SCF)       Authors: P.J. Knowles, H.-J. Werner (1984)     S.T. Elbert (1988)


 Number of closed-shell orbitals:   1 (   1   0   0   0   0   0   0   0 )
 Number of active  orbitals:        3 (   0   1   1   0   1   0   0   0 )
 Number of external orbitals:     158 (  39  26  26  11  26  11  11   8 )

 State symmetry 1

 Number of electrons:     2    Spin symmetry=Triplet   Space symmetry=4
 Number of states:        1
 Number of CSFs:          1   (1 determinants, 3 intermediate states)

 State symmetry 2

 Number of electrons:     2    Spin symmetry=Triplet   Space symmetry=6
 Number of states:        1
 Number of CSFs:          1   (1 determinants, 3 intermediate states)

 State symmetry 3

 Number of electrons:     2    Spin symmetry=Triplet   Space symmetry=7
 Number of states:        1
 Number of CSFs:          1   (1 determinants, 3 intermediate states)

 Molecular orbitals read from record     4202.2  Type=RHF/CANONICAL (state 1.4)
 *** IN SYMMETRY 1 ORBITAL  1 SYMMETRY CONTAMINATION OF 0.106D-01 HAS BEEN REMOVED

 EXTRA SYMMETRY OF MOS IN SYMMETRY 1:   1 1 3 2 1 3 2 4 6 5   2 3 1 4 6 5 2 3 1 4   6 5 2 3 1 1 1 1 1 1   1 1 1 1 1 1 1 1 1 1
 *** IN SYMMETRY 2 ORBITAL  1 SYMMETRY CONTAMINATION OF 0.328D-03 HAS BEEN REMOVED
 EXTRA SYMMETRY OF MOS IN SYMMETRY 2:   1 1 1 2 3 2 3 1 2 4   3 5 6 1 2 3 4 5 6 1   1 1 1 1 1 1 1
 *** IN SYMMETRY 3 ORBITAL  1 SYMMETRY CONTAMINATION OF 0.328D-03 HAS BEEN REMOVED
 EXTRA SYMMETRY OF MOS IN SYMMETRY 3:   1 1 1 2 3 2 3 1 2 4   3 5 6 1 2 3 4 5 6 1   1 1 1 1 1 1 1
 EXTRA SYMMETRY OF MOS IN SYMMETRY 4:   1 1 2 3 1 2 3 1 2 3   1
 *** IN SYMMETRY 5 ORBITAL  1 SYMMETRY CONTAMINATION OF 0.691D-02 HAS BEEN REMOVED
 EXTRA SYMMETRY OF MOS IN SYMMETRY 5:   1 1 2 3 1 2 3 1 2 3   6 4 5 1 2 3 6 4 5 1   1 1 1 1 1 1 1
 EXTRA SYMMETRY OF MOS IN SYMMETRY 6:   1 1 2 3 1 2 3 1 2 3   1
 EXTRA SYMMETRY OF MOS IN SYMMETRY 7:   1 1 2 3 1 2 3 1 2 3   1
 EXTRA SYMMETRY OF MOS IN SYMMETRY 8:   1 1 1 3 2 1 3 2

 Wavefunction dump at record             5202.2

 Convergence thresholds  0.10E-01 (gradient)  0.10E-05 (energy)  0.10E-02 (step length)

 Weight factors for state symmetry  1:    0.33333
 Weight factors for state symmetry  2:    0.33333
 Weight factors for state symmetry  3:    0.33333

 Number of orbital rotations:      117   (     0 Core/Active     39 Core/Virtual   0 Active/Active     78 Active/Virtual)
 Total number of variables:        120


 ITER. MIC  NCI  NEG     ENERGY(VAR)     ENERGY(PROJ)   ENERGY CHANGE     GRAD(0)  GRAD(ORB)   GRAD(CI)     STEP       TIME

   1   55   12    1      -1.85145885      -1.87948050   -0.02802165    0.05237721 0.00000000 0.00000000  0.85D+00      0.15
   2   18   12    0      -1.87520356      -1.87703193   -0.00182836    0.03133438 0.00000003 0.00000000  0.13D+00      0.27
   3   20   12    0      -1.87707731      -1.87708045   -0.00000314    0.00112429 0.00000000 0.00000000  0.65D-02      0.39
   4   19   12    0      -1.87708046      -1.87708046   -0.00000000    0.00000198 0.00000000 0.00000000  0.13D-04      0.52

 ** WVFN ****  CONVERGENCE REACHED, FINAL GRADIENT:  0.70D-11



 Results for state 1.4
 =====================

 !MCSCF STATE 1.4 Energy               -1.877080455589
 Nuclear energy                         0.00000000
 Kinetic energy                         0.67709667
 One electron energy                   -3.29789225
 Two electron energy                    1.42081179
 Virial ratio                           3.77224884

 !MCSCF STATE 1.4 Dipole moment         0.00000000     0.00000000     0.00000000
 Dipole moment /Debye                   0.00000000     0.00000000     0.00000000



 Results for state 1.6
 =====================

 !MCSCF STATE 1.6 Energy               -1.877080455589
 Nuclear energy                         0.00000000
 Kinetic energy                         0.67709667
 One electron energy                   -3.29789225
 Two electron energy                    1.42081179
 Virial ratio                           3.77224884

 !MCSCF STATE 1.6 Dipole moment         0.00000000     0.00000000     0.00000000
 Dipole moment /Debye                   0.00000000     0.00000000     0.00000000



 Results for state 1.7
 =====================

 !MCSCF STATE 1.7 Energy               -1.877080455589
 Nuclear energy                         0.00000000
 Kinetic energy                         0.67709667
 One electron energy                   -3.29789225
 Two electron energy                    1.42081179
 Virial ratio                           3.77224884

 !MCSCF STATE 1.7 Dipole moment         0.00000000     0.00000000     0.00000000
 Dipole moment /Debye                   0.00000000     0.00000000     0.00000000

 State-averaged charge density matrix saved on record  5202.2 (density set 1)


 NATURAL ORBITALS (state averaged)
 =================================

   Orb     Occ        Energy       Coefficients

                                   1 1s      1 1s      1 1s      1 1s      1 1s      1 1s      1 1s      1 1s      1 1s      1 1s   
                                   1 1s      1 1s      1 1s      1 1s      1 1s      1 1s      1 1s      1 1s      1 1s      1 1s   
                                   1 1s      1 3d0     1 3d2+    1 3d0     1 3d2+    1 3d0     1 3d2+    1 3d0     1 3d2+    1 3d0  
                                   1 3d2+    1 5g0     1 5g4+    1 5g2+    1 5g0     1 5g4+    1 5g2+    1 5g0     1 5g4+    1 5g2+ 


   1.1  2.00000    -0.207847     0.000000 -0.000000  0.000000 -0.000000  0.000001 -0.000004  0.000014 -0.000044  0.000134 -0.000376
                                 0.000988 -0.002405  0.005620 -0.016639  0.056374 -0.122367 -0.171077  0.324435  0.529567  0.300006
                                 0.044764  0.000000  0.000000  0.000000  0.000000  0.000000  0.000000  0.000000  0.000000  0.000000
                                 0.000000  0.000000  0.000000  0.000000  0.000000  0.000000  0.000000  0.000000  0.000000  0.000000

                                   1 2px     1 2px     1 2px     1 2px     1 2px     1 2px     1 2px     1 2px     1 2px     1 2px  
                                   1 2px     1 2px     1 2px     1 4f1+    1 4f3+    1 4f1+    1 4f3+    1 4f1+    1 4f3+    1 4f1+ 
                                   1 4f3+    1 6h1+    1 6h3+    1 6h5+    1 6h1+    1 6h3+    1 6h5+ 

   1.2  0.66667     0.122460     0.000001 -0.000009  0.000050 -0.000215  0.000790 -0.002659  0.007757 -0.025053 -0.008500  0.216063
                                 0.385042  0.396105  0.235670  0.000000  0.000000  0.000000  0.000000  0.000000  0.000000  0.000000
                                 0.000000  0.000000  0.000000  0.000000  0.000000  0.000000  0.000000

                                   1 2py     1 2py     1 2py     1 2py     1 2py     1 2py     1 2py     1 2py     1 2py     1 2py  
                                   1 2py     1 2py     1 2py     1 4f1-    1 4f3-    1 4f1-    1 4f3-    1 4f1-    1 4f3-    1 4f1- 
                                   1 4f3-    1 6h1-    1 6h3-    1 6h5-    1 6h1-    1 6h3-    1 6h5- 

   1.3  0.66667     0.122460     0.000001 -0.000009  0.000050 -0.000215  0.000790 -0.002659  0.007757 -0.025053 -0.008500  0.216063
                                 0.385042  0.396105  0.235670  0.000000  0.000000  0.000000  0.000000  0.000000  0.000000  0.000000
                                 0.000000  0.000000  0.000000  0.000000  0.000000  0.000000  0.000000

                                   1 2pz     1 2pz     1 2pz     1 2pz     1 2pz     1 2pz     1 2pz     1 2pz     1 2pz     1 2pz  
                                   1 2pz     1 2pz     1 2pz     1 4f0     1 4f2+    1 4f0     1 4f2+    1 4f0     1 4f2+    1 4f0  
                                   1 4f2+    1 6h2+    1 6h4+    1 6h0     1 6h2+    1 6h4+    1 6h0  

   1.5  0.66667     0.122460     0.000001 -0.000009  0.000050 -0.000215  0.000790 -0.002659  0.007757 -0.025053 -0.008500  0.216063
                                 0.385042  0.396105  0.235670  0.000000  0.000000  0.000000  0.000000  0.000000  0.000000  0.000000
                                 0.000000  0.000000  0.000000  0.000000  0.000000  0.000000  0.000000

 Total charge:  -1.000000000000
 

 EXTRA SYMMETRY OF MOS IN SYMMETRY 1:   1 1 3 2 1 3 2 5 4 6   2 3 1 5 4 6 2 3 1 5   6 4 3 2 1 1 1 1 1 1   1 1 1 1 1 1 1 1 1 1
 EXTRA SYMMETRY OF MOS IN SYMMETRY 2:   1 1 3 2 1 2 3 1 2 3   6 4 5 1 2 3 5 4 6 1   1 1 1 1 1 1 1
 EXTRA SYMMETRY OF MOS IN SYMMETRY 3:   1 1 2 3 1 3 2 1 3 2   4 6 5 1 2 3 6 5 4 1   1 1 1 1 1 1 1
 EXTRA SYMMETRY OF MOS IN SYMMETRY 5:   1 1 2 3 1 2 3 1 2 3   6 4 5 1 3 2 6 4 5 1   1 1 1 1 1 1 1
 EXTRA SYMMETRY OF MOS IN SYMMETRY 6:   1 1 3 2 1 3 2 1 2 3   1
 EXTRA SYMMETRY OF MOS IN SYMMETRY 7:   1 1 3 2 1 3 2 1 2 3   1

 Natural orbital dump (state averaged) at molpro section  5202.2    (Orbital set 2)


 CI vector for state symmetry 1
 ==============================

 a a 0           1.0000000

 TOTAL ENERGIES                        -1.87708046

 CI vector for state symmetry 2
 ==============================

 a 0 a           1.0000000

 TOTAL ENERGIES                        -1.87708046

 CI vector for state symmetry 3
 ==============================

 0 a a           1.0000000

 TOTAL ENERGIES                        -1.87708046



 **********************************************************************************************************************************
 DATASETS  * FILE   NREC   LENGTH (MB)   RECORD NAMES
              1      21       38.05       500      610      700      900      950      970     1000      129      960     1100   
                                          VAR    BASINP    GEOM    SYMINP    ZMAT    AOBASIS   BASIS     P2S    ABASIS      S 
                                         1400     1410     1420     1200     1210     1080     1600     1650     1300     1700   
                                           T        V       ECP      H0       H01     AOSYM     SMH    MOLCAS    ERIS     OPER   
                                         1380   
                                         JKOP   

              2       9       14.60       200      700     1000      520     4202     5202     2101     2102     2103   
                                        OPTIONS   GEOM     BASIS   MCVARS     RHF     MCSCF     RHF      RHF      RHF  

 PROGRAMS   *        TOTAL     MULTI       RHF  UCCSD(T)       RHF  UCCSD(T)       RHF  UCCSD(T)       RHF     MULTI       RHF
 CPU TIMES  *         8.61      0.67      0.49      0.20      0.33      0.60      0.33      1.06      0.09      0.48      0.31
 REAL TIME  *        11.51 SEC
 DISK USED  *       131.99 MB      
 **********************************************************************************************************************************

1PROGRAM * RHF-SCF (OPEN SHELL)       Authors: W. Meyer, H.-J. Werner


 NUMBER OF ELECTRONS:       3+    1-    SPACE SYMMETRY=4    SPIN SYMMETRY: Triplet 
 CONVERGENCE THRESHOLDS:    1.00E-05 (Density)    1.00E-07 (Energy)
 MAX. NUMBER OF ITERATIONS:        0
 INTERPOLATION TYPE:            DIIS
 INTERPOLATION STEPS:              2 (START)      1 (STEP)
 LEVEL SHIFTS:                 -0.30 (CLOSED)  0.00 (OPEN) 


 Singly occupied orbitals:      1.2       1.3
 Molecular orbitals read from record     5202.2  Type=MCSCF/NATURAL  

 Molecular orbital dump at record        2105.2

 ITERATION    DDIFF          GRAD             ENERGY        2-EL.EN.            DIPOLE MOMENTS         DIIS   ORB.
    1      0.000D+00      0.000D+00        -1.87708046      2.841624    0.00000    0.00000    0.00000    0    start

 Final alpha occupancy:   1   1   1   0   0   0   0   0
 Final beta  occupancy:   1   0   0   0   0   0   0   0

 !RHF STATE 1.4 Energy                 -1.877080455589
 Nuclear energy                         0.00000000
 One-electron energy                   -3.29789225
 Two-electron energy                    1.42081179
 Virial quotient                       -2.77224884
 !RHF STATE 1.4 Dipole moment           0.00000000     0.00000000     0.00000000
 Dipole moment /Debye                   0.00000000     0.00000000     0.00000000

 Orbital energies:

         1.1          2.1          3.1
     -0.207847     0.145283     0.207458

         1.2          2.2          3.2
      0.122460     0.132409     0.337212

         1.3          2.3          3.3
      0.122460     0.132409     0.337212

         1.4          2.4
      0.207458     0.433601

         1.5          2.5
      0.122460     0.132409

         1.6          2.6
      0.207458     0.433601

         1.7          2.7
      0.207458     0.433601

         1.8          2.8
      0.337212     0.747334

 HOMO      1.2     0.122460 =       3.3323eV
 LUMO      1.5     0.122460 =       3.3323eV
 LUMO-HOMO        -0.000000 =      -0.0000eV


 **********************************************************************************************************************************
 DATASETS  * FILE   NREC   LENGTH (MB)   RECORD NAMES
              1      21       38.05       500      610      700      900      950      970     1000      129      960     1100   
                                          VAR    BASINP    GEOM    SYMINP    ZMAT    AOBASIS   BASIS     P2S    ABASIS      S 
                                         1400     1410     1420     1200     1210     1080     1600     1650     1300     1700   
                                           T        V       ECP      H0       H01     AOSYM     SMH    MOLCAS    ERIS     OPER   
                                         1380   
                                         JKOP   

              2      10       17.27       200      700     1000      520     4202     5202     2101     2102     2103     2105   
                                        OPTIONS   GEOM     BASIS   MCVARS     RHF     MCSCF     RHF      RHF      RHF      RHF  

 PROGRAMS   *        TOTAL       RHF     MULTI       RHF  UCCSD(T)       RHF  UCCSD(T)       RHF  UCCSD(T)       RHF     MULTI
 CPU TIMES  *         8.71      0.09      0.67      0.49      0.20      0.33      0.60      0.33      1.06      0.09      0.48
 REAL TIME  *        11.66 SEC
 DISK USED  *       131.99 MB      
 **********************************************************************************************************************************
 SETTING SCF(4)         =        -1.87708046  AU                              
 SETTING _CC_NORM_MAX   =         2.00000000                                  


1PROGRAM * CCSD (Unrestricted open-shell coupled cluster)     Authors: C. Hampel, H.-J. Werner, 1991, M. Deegan, P.J. Knowles, 1992


 Convergence thresholds:  THRVAR = 1.00D-08  THRDEN = 1.00D-06

 CCSD(T)     terms to be evaluated (factor= 1.000)


 Number of closed-shell orbitals:   1 (   1   0   0   0   0   0   0   0 )
 Number of active  orbitals:        2 (   0   1   1   0   0   0   0   0 )
 Number of external orbitals:     159 (  39  26  26  11  27  11  11   8 )

 Memory could be reduced to 5.37 Mwords without degradation in triples

 Number of N-1 electron functions:               4
 Number of N-2 electron functions:               6
 Number of singly external CSFs:               132
 Number of doubly external CSFs:             16212
 Total number of CSFs:                       16344

 Molecular orbitals read from record     2105.2  Type=RHF/CANONICAL (state 1.4)

 Integral transformation finished. Total CPU:   0.18 sec, npass=  1  Memory used:   0.63 MW

 Starting RMP2 calculation

 ITER.      SQ.NORM     CORR.ENERGY   TOTAL ENERGY   ENERGY CHANGE        DEN1      VAR(S)    VAR(P)  DIIS     TIME
   1      1.05162667    -0.05676230    -1.93384275    -0.05676230    -0.00108361  0.68D-04  0.10D-02  1  1     0.18
   2      1.05500267    -0.05808128    -1.93516174    -0.00131898    -0.00001201  0.39D-06  0.16D-04  2  2     0.18
   3      1.05528552    -0.05813153    -1.93521199    -0.00005025    -0.00000023  0.54D-08  0.37D-06  3  3     0.18
   4      1.05530360    -0.05813258    -1.93521304    -0.00000105    -0.00000000  0.14D-09  0.72D-08  4  4     0.18
   5      1.05530508    -0.05813276    -1.93521321    -0.00000017    -0.00000000  0.25D-11  0.91D-10  5  5     0.18

 Norm of t1 vector:      0.05058109      S-energy:    -0.00161617      T1 diagnostic:  0.00324440
 Norm of t2 vector:      0.22966635      P-energy:    -0.05651659
                                         Alpha-Beta:  -0.04590783
                                         Alpha-Alpha: -0.01060876
                                         Beta-Beta:    0.00000000

 Spin contamination <S**2-Sz**2-Sz>     0.00568617
  Reference energy                     -1.877080455589
  RHF-RMP2 correlation energy          -0.058132756640
 !RHF-RMP2 energy                      -1.935213212230

 Starting UCCSD calculation

 ITER.      SQ.NORM     CORR.ENERGY   TOTAL ENERGY   ENERGY CHANGE        DEN1      VAR(S)    VAR(P)  DIIS     TIME
   1      1.06682250    -0.06205666    -1.93913711    -0.06205666    -0.00504754  0.57D-03  0.43D-02  1  1     0.35
   2      1.08985200    -0.06896857    -1.94604902    -0.00691191    -0.00030568  0.61D-04  0.24D-03  2  2     0.49
   3      1.09558189    -0.07000116    -1.94708162    -0.00103259    -0.00003423  0.81D-05  0.28D-04  3  3     0.64
   4      1.09755627    -0.07027005    -1.94735050    -0.00026889    -0.00000441  0.88D-06  0.37D-05  4  4     0.79
   5      1.09807565    -0.07031733    -1.94739778    -0.00004728    -0.00000046  0.10D-06  0.38D-06  5  5     0.93
   6      1.09814663    -0.07031535    -1.94739580     0.00000198    -0.00000005  0.11D-07  0.45D-07  6  6     1.08
   7      1.09818065    -0.07032018    -1.94740063    -0.00000483    -0.00000001  0.39D-08  0.68D-08  6  1     1.23
   8      1.09818597    -0.07032055    -1.94740101    -0.00000037    -0.00000000  0.16D-08  0.99D-09  6  3     1.37

 Norm of t1 vector:      0.07638833      S-energy:    -0.00185340      T1 diagnostic:  0.01742675
                                                                       D1 diagnostic:  0.02123759
 Norm of t2 vector:      0.30389274      P-energy:    -0.06846715
                                         Alpha-Beta:  -0.05619164
                                         Alpha-Alpha: -0.01227551
                                         Beta-Beta:    0.00000000

 Doubles amplitudes (print threshold =  0.500E-01):

         I         J         SYM. A    SYM. B    A         B      T(IJ, AB) [Alpha-Beta]

         1         1         5         5         1         1     -0.09670245

 Spin contamination <S**2-Sz**2-Sz>     0.00580197

 Memory could be reduced to 5.52 Mwords without degradation in triples
 

 RESULTS
 =======

  Reference energy                     -1.877080455589
  UCCSD singles energy                 -0.001853398598
  UCCSD pair energy                    -0.068467151390
  UCCSD correlation energy             -0.070320549987
  Triples (T) contribution             -0.003737283374
  Total correlation energy             -0.074057833361
 
  RHF-UCCSD energy                     -1.947401005577
  RHF-UCCSD[T] energy                  -1.951092203976
  RHF-UCCSD-T energy                   -1.951159529764
 !RHF-UCCSD(T) energy                  -1.951138288951

 Program statistics:

 Available memory in ccsd:               511999798
 Min. memory needed in ccsd:                161647
 Max. memory used in ccsd:                  172851
 Max. memory used in cckext:                193869 ( 8 integral passes)
 Max. memory used in cckint:                632937 ( 1 integral passes)



 **********************************************************************************************************************************
 DATASETS  * FILE   NREC   LENGTH (MB)   RECORD NAMES
              1      21       38.05       500      610      700      900      950      970     1000      129      960     1100   
                                          VAR    BASINP    GEOM    SYMINP    ZMAT    AOBASIS   BASIS     P2S    ABASIS      S 
                                         1400     1410     1420     1200     1210     1080     1600     1650     1300     1700   
                                           T        V       ECP      H0       H01     AOSYM     SMH    MOLCAS    ERIS     OPER   
                                         1380   
                                         JKOP   

              2      10       17.27       200      700     1000      520     4202     5202     2101     2102     2103     2105   
                                        OPTIONS   GEOM     BASIS   MCVARS     RHF     MCSCF     RHF      RHF      RHF      RHF  

 PROGRAMS   *        TOTAL  UCCSD(T)       RHF     MULTI       RHF  UCCSD(T)       RHF  UCCSD(T)       RHF  UCCSD(T)       RHF
 CPU TIMES  *        10.24      1.53      0.09      0.67      0.49      0.20      0.33      0.60      0.33      1.06      0.09
 REAL TIME  *        13.50 SEC
 DISK USED  *       131.99 MB      
 **********************************************************************************************************************************
 SETTING CCSD(4)        =        -1.95113829  AU                              
 Output type csv         
                                                                                                                                                                                                                                                                

      SCF,CCSD
   -1.87507493,   -1.93476540
   -1.67279543,   -1.71488098
   -1.03018624,   -1.03018624
   -1.87708046,   -1.95113829
                                                  

        UCCSD(T)        RHF-SCF         MULTI           RHF-SCF         UCCSD(T)        RHF-SCF         UCCSD(T)        RHF-SCF 
     -1.95113829     -1.87708046     -1.87708046     -1.87716824     -1.03018624     -1.03018624     -1.71488098     -1.67279543
 **********************************************************************************************************************************
 Variable memory released
