
 Primary working directories    : /tmp/cmelton
 Secondary working directories  : /tmp/cmelton
 Wavefunction directory         : /remote/cmelton/wfu/
 Main file repository           : /tmp/cmelton/

 SHA1      : 4c1979699e6aeda0524d0210415ba82a958648b0
 NAME      : 2012.1.39
 ARCHNAME  : Linux/x86_64
 FC        : /projects/sems/install/rhel6-x86_64/sems/compiler/intel/16.0.1/base/bin/ifort
 FCVERSION : 16.0.1
 BLASLIB   : -L/projects/sems/install/rhel6-x86_64/sems/compiler/intel/16.0.1/base/compilers_and_libraries_2016.1.150/linux/mkl/lib/intel64 -lmkl_intel_ilp64 -lmkl_sequential -lmkl_core
 id        : sandiacon

 Nodes             nprocs
 s989256.sandia.gov    1

 Using customized tuning parameters: mindgm=7; mindgv=16; mindgc=1; mindgr=1; noblas=0; minvec=7
 default implementation of scratch files=df  

 ***,Calculation for Be atom, singlet and triplet
 memory,512,m
 gthresh,twoint=1.0E-12
 geometry={
 1
 Al
 Al  0.0 0.0 0.0
 }
 
 basis={
 ecp,Al,10,2,0
 3
   1  ,  1.91050800 ,   3.00000000
   3  ,  1.69821900 ,   8.93428800
   2  ,  2.97809600 ,  -9.40279400
 1
   2  ,  9.96813000 ,  17.57180200
 1
   2  ,  2.72141500 ,  12.14866500
 Including file /remote/cmelton/data/corrECP/2nd_row/aug-cc-pVDZ.basis
 }
 
 Including file /remote/cmelton/data/corrECP/2nd_row/Al/Ne-core/basis/states.proc
 
 do i=1,4
 if (i.eq.1) then
     GS
 else if (i.eq.2) then
     IP1
 else if (i.eq.3) then
     IP2
 else if (i.eq.4) then
     EA
 endif
 scf(i)=energy
 _CC_NORM_MAX=2.0
 {uccsd(t),maxit=400;core}
 ccsd(i)=energy
 enddo
 
 table,scf,ccsd
 save
 type,csv

 Variables initialized (782), CPU time= 0.01 sec
 Commands  initialized (547), CPU time= 0.01 sec, 517 directives.
 Default parameters read. Elapsed time= 0.26 sec

 Checking input...
 Passed
1


                                         ***  PROGRAM SYSTEM MOLPRO  ***
                         Copyright, University College Cardiff Consultants Limited, 2008

                                    Version 2012.1 linked Aug  2 2016 14:07:26


 **********************************************************************************************************************************
 LABEL *   Calculation for Be atom, singlet and triplet                                  
 Linux-3.10.0-693.21.1.el7.x86_64/s989256.sandia.gov(x86_64) 64 bit serial version       DATE: 30-Apr-18          TIME: 17:00:21  
 **********************************************************************************************************************************

 SHA1:             4c1979699e6aeda0524d0210415ba82a958648b0
 **********************************************************************************************************************************

 THRESHOLDS:

 ZERO    =  1.00D-12  ONEINT  =  1.00D-12  TWOINT  =  1.00D-12  PREFAC  =  1.00D-14  LOCALI  =  1.00D-09  EORDER  =  1.00D-04
 ENERGY  =  0.00D+00  ETEST   =  0.00D+00  EDENS   =  0.00D+00  THRDEDEF=  1.00D-06  GRADIENT=  1.00D-02  STEP    =  1.00D-03
 ORBITAL =  1.00D-05  CIVEC   =  1.00D-05  COEFF   =  1.00D-04  PRINTCI =  5.00D-02  PUNCHCI =  9.90D+01  OPTGRAD =  3.00D-04
 OPTENERG=  1.00D-06  OPTSTEP =  3.00D-04  THRGRAD =  1.00D-10  COMPRESS=  1.00D-11  VARMIN  =  1.00D-07  VARMAX  =  1.00D-03
 THRDOUB =  0.00D+00  THRDIV  =  1.00D-05  THRRED  =  1.00D-07  THRPSP  =  1.00D+00  THRDC   =  1.00D-10  THRCS   =  1.00D-10
 THRNRM  =  1.00D-08  THREQ   =  0.00D+00  THRDE   =  1.00D+00  THRREF  =  1.00D-05  SPARFAC =  1.00D+00  THRDLP  =  1.00D-07
 THRDIA  =  1.00D-10  THRDLS  =  1.00D-07  THRGPS  =  0.00D+00  THRKEX  =  0.00D+00  THRDIS  =  2.00D-01  THRVAR  =  1.00D-10
 THRLOC  =  1.00D-06  THRGAP  =  1.00D-06  THRLOCT = -1.00D+00  THRGAPT = -1.00D+00  THRORB  =  1.00D-06  THRMLTP =  0.00D+00
 THRCPQCI=  1.00D-10  KEXTA   =  0.00D+00  THRCOARS=  0.00D+00  SYMTOL  =  1.00D-06  GRADTOL =  1.00D-06  THROVL  =  1.00D-08
 THRORTH =  1.00D-08  GRID    =  1.00D-06  GRIDMAX =  1.00D-03  DTMAX   =  0.00D+00  THROCCDE=  1.00D-01  THROCCDE=  1.00D-01



Geometry recognized as XYZ


 Variable memory set to  512000000 words,  buffer space   230000 words

 SETTING BASIS          =    USERDEF

 DO I                   =         1.00000000   

 Running procedure=GS


 Recomputing integrals since basis changed


 Using spherical harmonics


1PROGRAM * SEWARD (Integral evaluation for generally contracted gaussian basis sets)     Author: Roland Lindh, 1990

 Geometry written to block  1 of record 700

 Orientation using atomic masses  
 Molecule type: Atom
 Symmetry elements: X,Y,Z
 Rotational constants:       0.0000000      0.0000000      0.0000000 GHz  (calculated with average atomic masses)

 Point group  D2h 



 ATOMIC COORDINATES

 NR  ATOM    CHARGE       X              Y              Z

   1  AL      3.00    0.000000000    0.000000000    0.000000000

 NUCLEAR CHARGE:                    3
 NUMBER OF PRIMITIVE AOS:          52
 NUMBER OF SYMMETRY AOS:           50
 NUMBER OF CONTRACTIONS:           50   (  17Ag  +   9B3u +   9B2u +   2B1g +   9B1u +   2B2g +   2B3g +   0Au  )
 NUMBER OF CORE ORBITALS:           0   (   0Ag  +   0B3u +   0B2u +   0B1g +   0B1u +   0B2g +   0B3g +   0Au  )
 NUMBER OF VALENCE ORBITALS:        4   (   1Ag  +   1B3u +   1B2u +   0B1g +   1B1u +   0B2g +   0B3g +   0Au  )


 NUCLEAR REPULSION ENERGY    0.00000000

 EXTRA SYMMETRY OF AOS IN SYMMETRY 1:   1 1 1 1 1 1 1 1 1 1   1 1 1 2 3 2 3

 Eigenvalues of metric

         1 0.712E-02 0.253E-01 0.393E-01 0.706E-01 0.135E+00 0.265E+00 0.407E+00 0.481E+00
         2 0.386E-01 0.124E+00 0.213E+00 0.399E+00 0.693E+00 0.101E+01 0.158E+01 0.207E+01
         3 0.386E-01 0.124E+00 0.213E+00 0.399E+00 0.693E+00 0.101E+01 0.158E+01 0.207E+01
         4 0.481E+00 0.152E+01
         5 0.386E-01 0.124E+00 0.213E+00 0.399E+00 0.693E+00 0.101E+01 0.158E+01 0.207E+01
         6 0.481E+00 0.152E+01
         7 0.481E+00 0.152E+01


 Contracted 2-electron integrals neglected if value below      1.0D-12
 AO integral compression algorithm  1   Integral accuracy      1.0D-12

     2.097 MB (compressed) written to integral file ( 67.3%)


 NUMBER OF SORTED TWO-ELECTRON INTEGRALS:     131061.     BUFFER LENGTH:  32768
 NUMBER OF SEGMENTS:   1  SEGMENT LENGTH:     131061      RECORD LENGTH: 524288

 Memory used in sort:       0.69 MW

 SORT1 READ      354588. AND WROTE      117187. INTEGRALS IN      1 RECORDS. CPU TIME:     0.00 SEC, REAL TIME:     0.00 SEC
 SORT2 READ      117187. AND WROTE      131061. INTEGRALS IN      8 RECORDS. CPU TIME:     0.01 SEC, REAL TIME:     0.02 SEC

 FILE SIZES:   FILE 1:     9.7 MBYTE,  FILE 4:     4.2 MBYTE,   TOTAL:     13.9 MBYTE

 OPERATOR DM      FOR CENTER  0  COORDINATES:    0.000000    0.000000    0.000000


 **********************************************************************************************************************************
 DATASETS  * FILE   NREC   LENGTH (MB)   RECORD NAMES
              1      20        8.21       500      610      700      900      950      970     1000      129      960     1100   
                                          VAR    BASINP    GEOM    SYMINP    ZMAT    AOBASIS   BASIS     P2S    ABASIS      S 
                                         1400     1410     1420     1200     1210     1080     1600     1650     1300     1700   
                                           T        V       ECP      H0       H01     AOSYM     SMH    MOLCAS    ERIS     OPER   

 PROGRAMS   *        TOTAL       INT
 CPU TIMES  *         0.45      0.28
 REAL TIME  *         1.13 SEC
 DISK USED  *        15.21 MB      
 **********************************************************************************************************************************

1PROGRAM * RHF-SCF (OPEN SHELL)       Authors: W. Meyer, H.-J. Werner


 NUMBER OF ELECTRONS:       2+    1-    SPACE SYMMETRY=2    SPIN SYMMETRY: Doublet 
 CONVERGENCE THRESHOLDS:    1.00E-05 (Density)    1.00E-07 (Energy)
 MAX. NUMBER OF ITERATIONS:       60
 INTERPOLATION TYPE:            DIIS
 INTERPOLATION STEPS:              2 (START)      1 (STEP)
 LEVEL SHIFTS:                 -0.30 (CLOSED)  0.00 (OPEN) 


 Singly occupied orbitals:      1.2
 Orbital guess generated from atomic densities. Full valence occupancy:    1   1   1   0   1   0   0   0


 Molecular orbital dump at record        4202.2

 ITERATION    DDIFF          GRAD             ENERGY        2-EL.EN.            DIPOLE MOMENTS         DIIS   ORB.
    1      0.000D+00      0.000D+00        -2.00319313      1.708018    0.00000    0.00000    0.00000    0    start
    2      0.000D+00      0.105D-01        -2.01048979      1.790144    0.00000    0.00000    0.00000    1    diag,B
    3      0.115D-01      0.302D-02        -2.01160302      1.827982    0.00000    0.00000    0.00000    2    diag,B
    4      0.638D-02      0.498D-03        -2.01165596      1.835855    0.00000    0.00000    0.00000    3    diag,B
    5      0.164D-02      0.916D-04        -2.01165694      1.836071    0.00000    0.00000    0.00000    4    diag,B
    6      0.301D-03      0.186D-04        -2.01165701      1.836332    0.00000    0.00000    0.00000    5    diag,B
    7      0.617D-04      0.169D-05        -2.01165701      1.836341    0.00000    0.00000    0.00000    6    fixocc
    8      0.314D-05      0.664D-06        -2.01165701      1.836345    0.00000    0.00000    0.00000    0    orth

 Final alpha occupancy:   1   1   0   0   0   0   0
 Final beta  occupancy:   1   0   0   0   0   0   0

 !RHF STATE 1.2 Energy                 -2.011657014768
 Nuclear energy                         0.00000000
 One-electron energy                   -2.92982937
 Two-electron energy                    0.91817235
 Virial quotient                       -3.44753614
 !RHF STATE 1.2 Dipole moment           0.00000000     0.00000000     0.00000000
 Dipole moment /Debye                   0.00000000     0.00000000     0.00000000

 Orbital energies:

         1.1          2.1          3.1
     -0.462356     0.038256     0.141452

         1.2          2.2          3.2
     -0.168774     0.055949     0.428275

         1.3          2.3
      0.015356     0.077849

         1.4          2.4
      0.143580     0.561026

         1.5          2.5
      0.015356     0.077849

         1.6          2.6
      0.143580     0.561026

         1.7          2.7
      0.150098     0.564028

 HOMO      1.2    -0.168774 =      -4.5926eV
 LUMO      1.3     0.015356 =       0.4178eV
 LUMO-HOMO         0.184130 =       5.0104eV


 **********************************************************************************************************************************
 DATASETS  * FILE   NREC   LENGTH (MB)   RECORD NAMES
              1      20        8.21       500      610      700      900      950      970     1000      129      960     1100   
                                          VAR    BASINP    GEOM    SYMINP    ZMAT    AOBASIS   BASIS     P2S    ABASIS      S 
                                         1400     1410     1420     1200     1210     1080     1600     1650     1300     1700   
                                           T        V       ECP      H0       H01     AOSYM     SMH    MOLCAS    ERIS     OPER   

              2       5        3.80       200      700     1000      520     4202   
                                        OPTIONS   GEOM     BASIS   MCVARS     RHF  

 PROGRAMS   *        TOTAL       RHF       INT
 CPU TIMES  *         0.50      0.05      0.28
 REAL TIME  *         1.25 SEC
 DISK USED  *        15.21 MB      
 **********************************************************************************************************************************

1PROGRAM * MULTI (Direct Multiconfiguration SCF)       Authors: P.J. Knowles, H.-J. Werner (1984)     S.T. Elbert (1988)


 Number of closed-shell orbitals:   1 (   1   0   0   0   0   0   0   0 )
 Number of active  orbitals:        3 (   0   1   1   0   1   0   0   0 )
 Number of external orbitals:      46 (  16   8   8   2   8   2   2   0 )

 State symmetry 1

 Number of electrons:     1    Spin symmetry=Doublet   Space symmetry=2
 Number of states:        1
 Number of CSFs:          1   (1 determinants, 3 intermediate states)

 State symmetry 2

 Number of electrons:     1    Spin symmetry=Doublet   Space symmetry=3
 Number of states:        1
 Number of CSFs:          1   (1 determinants, 3 intermediate states)

 State symmetry 3

 Number of electrons:     1    Spin symmetry=Doublet   Space symmetry=5
 Number of states:        1
 Number of CSFs:          1   (1 determinants, 3 intermediate states)

 Molecular orbitals read from record     4202.2  Type=RHF/CANONICAL (state 1.2)
 *** IN SYMMETRY 1 ORBITAL  1 SYMMETRY CONTAMINATION OF 0.145D-01 HAS BEEN REMOVED

 EXTRA SYMMETRY OF MOS IN SYMMETRY 1:   1 1 3 2 1 3 2 1 1 1   1 1 1 1 1 1 1

 Wavefunction dump at record             5202.2

 Convergence thresholds  0.10E-01 (gradient)  0.10E-05 (energy)  0.10E-02 (step length)

 Weight factors for state symmetry  1:    0.33333
 Weight factors for state symmetry  2:    0.33333
 Weight factors for state symmetry  3:    0.33333

 Number of orbital rotations:       40   (     0 Core/Active     16 Core/Virtual   0 Active/Active     24 Active/Virtual)
 Total number of variables:         43


 ITER. MIC  NCI  NEG     ENERGY(VAR)     ENERGY(PROJ)   ENERGY CHANGE     GRAD(0)  GRAD(ORB)   GRAD(CI)     STEP       TIME

   1   38   12    0      -1.98847737      -2.01162726   -0.02314989    0.03851939 0.00000000 0.00000000  0.79D+00      0.02
   2   13   12    0      -2.01151631      -2.01157212   -0.00005582    0.00791237 0.00000000 0.00000000  0.91D-02      0.04
   3   15   12    0      -2.01157217      -2.01157217   -0.00000000    0.00001569 0.00000000 0.00000000  0.43D-04      0.05

 ** WVFN ****  CONVERGENCE REACHED, FINAL GRADIENT:  0.10D-09



 Results for state 1.2
 =====================

 !MCSCF STATE 1.2 Energy               -2.011572167585
 Nuclear energy                         0.00000000
 Kinetic energy                         0.58345458
 One electron energy                   -2.92993166
 Two electron energy                    0.91835949
 Virial ratio                           4.44769284

 !MCSCF STATE 1.2 Dipole moment         0.00000000     0.00000000     0.00000000
 Dipole moment /Debye                   0.00000000     0.00000000     0.00000000



 Results for state 1.3
 =====================

 !MCSCF STATE 1.3 Energy               -2.011572167585
 Nuclear energy                         0.00000000
 Kinetic energy                         0.58345458
 One electron energy                   -2.92993166
 Two electron energy                    0.91835949
 Virial ratio                           4.44769284

 !MCSCF STATE 1.3 Dipole moment         0.00000000     0.00000000     0.00000000
 Dipole moment /Debye                   0.00000000     0.00000000     0.00000000



 Results for state 1.5
 =====================

 !MCSCF STATE 1.5 Energy               -2.011572167585
 Nuclear energy                         0.00000000
 Kinetic energy                         0.58345458
 One electron energy                   -2.92993166
 Two electron energy                    0.91835949
 Virial ratio                           4.44769284

 !MCSCF STATE 1.5 Dipole moment         0.00000000     0.00000000     0.00000000
 Dipole moment /Debye                   0.00000000     0.00000000     0.00000000

 State-averaged charge density matrix saved on record  5202.2 (density set 1)


 NATURAL ORBITALS (state averaged)
 =================================

   Orb     Occ        Energy       Coefficients

                                   1 1s      1 1s      1 1s      1 1s      1 1s      1 1s      1 1s      1 1s      1 1s      1 1s   
                                   1 1s      1 1s      1 1s      1 3d0     1 3d2+    1 3d0     1 3d2+ 

   1.1  2.00000    -0.462306     0.000000 -0.000003  0.000023 -0.000122  0.000543 -0.002096  0.007241 -0.022191  0.024207 -0.061002
                                 0.750631  0.297425  0.019590  0.000000  0.000000  0.000000  0.000000

                                   1 2px     1 2px     1 2px     1 2px     1 2px     1 2px     1 2px     1 2px     1 2px  

   1.2  0.33333     0.014456    -0.000008  0.000067 -0.000350  0.001409 -0.002141 -0.047905  0.327750  0.694124  0.139842

                                   1 2py     1 2py     1 2py     1 2py     1 2py     1 2py     1 2py     1 2py     1 2py  

   1.3  0.33333     0.014456    -0.000008  0.000067 -0.000350  0.001409 -0.002141 -0.047905  0.327750  0.694124  0.139842

                                   1 2pz     1 2pz     1 2pz     1 2pz     1 2pz     1 2pz     1 2pz     1 2pz     1 2pz  

   1.5  0.33333     0.014456    -0.000008  0.000067 -0.000350  0.001409 -0.002141 -0.047905  0.327750  0.694124  0.139842
 

 Natural orbital dump (state averaged) at molpro section  5202.2    (Orbital set 2)


 CI vector for state symmetry 1
 ==============================

 a 0 0           1.0000000

 TOTAL ENERGIES                        -2.01157217

 CI vector for state symmetry 2
 ==============================

 0 a 0           1.0000000

 TOTAL ENERGIES                        -2.01157217

 CI vector for state symmetry 3
 ==============================

 0 0 a           1.0000000

 TOTAL ENERGIES                        -2.01157217



 **********************************************************************************************************************************
 DATASETS  * FILE   NREC   LENGTH (MB)   RECORD NAMES
              1      21        8.27       500      610      700      900      950      970     1000      129      960     1100   
                                          VAR    BASINP    GEOM    SYMINP    ZMAT    AOBASIS   BASIS     P2S    ABASIS      S 
                                         1400     1410     1420     1200     1210     1080     1600     1650     1300     1700   
                                           T        V       ECP      H0       H01     AOSYM     SMH    MOLCAS    ERIS     OPER   
                                         1380   
                                         JKOP   

              2       6        6.31       200      700     1000      520     4202     5202   
                                        OPTIONS   GEOM     BASIS   MCVARS     RHF     MCSCF   

 PROGRAMS   *        TOTAL     MULTI       RHF       INT
 CPU TIMES  *         0.59      0.08      0.05      0.28
 REAL TIME  *         1.70 SEC
 DISK USED  *        23.84 MB      
 **********************************************************************************************************************************

1PROGRAM * RHF-SCF (OPEN SHELL)       Authors: W. Meyer, H.-J. Werner


 NUMBER OF ELECTRONS:       2+    1-    SPACE SYMMETRY=2    SPIN SYMMETRY: Doublet 
 CONVERGENCE THRESHOLDS:    1.00E-05 (Density)    1.00E-07 (Energy)
 MAX. NUMBER OF ITERATIONS:        0
 INTERPOLATION TYPE:            DIIS
 INTERPOLATION STEPS:              2 (START)      1 (STEP)
 LEVEL SHIFTS:                 -0.30 (CLOSED)  0.00 (OPEN) 


 Singly occupied orbitals:      1.2
 Molecular orbitals read from record     5202.2  Type=MCSCF/NATURAL  

 Molecular orbital dump at record        2101.2

 ITERATION    DDIFF          GRAD             ENERGY        2-EL.EN.            DIPOLE MOMENTS         DIIS   ORB.
    1      0.000D+00      0.000D+00        -2.01157217      1.836719    0.00000    0.00000    0.00000    0    start

 Final alpha occupancy:   1   1   0   0   0   0   0
 Final beta  occupancy:   1   0   0   0   0   0   0

 !RHF STATE 1.2 Energy                 -2.011572167585
 Nuclear energy                         0.00000000
 One-electron energy                   -2.92993166
 Two-electron energy                    0.91835949
 Virial quotient                       -3.44769284
 !RHF STATE 1.2 Dipole moment           0.00000000     0.00000000     0.00000000
 Dipole moment /Debye                   0.00000000     0.00000000     0.00000000

 Orbital energies:

         1.1          2.1          3.1
     -0.462306     0.044302     0.154625

         1.2          2.2          3.2
      0.014456     0.060406     0.442106

         1.3          2.3
      0.014456     0.060406

         1.4          2.4
      0.154625     0.572715

         1.5          2.5
      0.014456     0.060406

         1.6          2.6
      0.154625     0.572715

         1.7          2.7
      0.154625     0.572715

 HOMO      1.2     0.014456 =       0.3934eV
 LUMO      1.3     0.014456 =       0.3934eV
 LUMO-HOMO         0.000000 =       0.0000eV


 **********************************************************************************************************************************
 DATASETS  * FILE   NREC   LENGTH (MB)   RECORD NAMES
              1      21        8.27       500      610      700      900      950      970     1000      129      960     1100   
                                          VAR    BASINP    GEOM    SYMINP    ZMAT    AOBASIS   BASIS     P2S    ABASIS      S 
                                         1400     1410     1420     1200     1210     1080     1600     1650     1300     1700   
                                           T        V       ECP      H0       H01     AOSYM     SMH    MOLCAS    ERIS     OPER   
                                         1380   
                                         JKOP   

              2       7        8.83       200      700     1000      520     4202     5202     2101   
                                        OPTIONS   GEOM     BASIS   MCVARS     RHF     MCSCF     RHF  

 PROGRAMS   *        TOTAL       RHF     MULTI       RHF       INT
 CPU TIMES  *         0.61      0.02      0.08      0.05      0.28
 REAL TIME  *         1.78 SEC
 DISK USED  *        23.84 MB      
 **********************************************************************************************************************************
 SETTING SCF(1)         =        -2.01157217  AU                              
 SETTING _CC_NORM_MAX   =         2.00000000                                  


1PROGRAM * CCSD (Unrestricted open-shell coupled cluster)     Authors: C. Hampel, H.-J. Werner, 1991, M. Deegan, P.J. Knowles, 1992


 Convergence thresholds:  THRVAR = 1.00D-08  THRDEN = 1.00D-06

 CCSD(T)     terms to be evaluated (factor= 1.000)


 Number of closed-shell orbitals:   1 (   1   0   0   0   0   0   0 )
 Number of active  orbitals:        1 (   0   1   0   0   0   0   0 )
 Number of external orbitals:      48 (  16   8   9   2   9   2   2 )

 Memory could be reduced to 0.45 Mwords without degradation in triples

 Number of N-1 electron functions:               3
 Number of N-2 electron functions:               3
 Number of singly external CSFs:                41
 Number of doubly external CSFs:              1093
 Total number of CSFs:                        1134

 Molecular orbitals read from record     2101.2  Type=RHF/CANONICAL (state 1.2)

 Integral transformation finished. Total CPU:   0.01 sec, npass=  1  Memory used:   0.08 MW

 Starting RMP2 calculation

 ITER.      SQ.NORM     CORR.ENERGY   TOTAL ENERGY   ENERGY CHANGE        DEN1      VAR(S)    VAR(P)  DIIS     TIME
   1      1.02325298    -0.03160723    -2.04317939    -0.03160723    -0.00035790  0.41D-04  0.25D-03  1  1     0.01
   2      1.02403001    -0.03201870    -2.04359087    -0.00041148    -0.00000150  0.29D-06  0.10D-05  2  2     0.01
   3      1.02406059    -0.03202705    -2.04359922    -0.00000834    -0.00000001  0.54D-09  0.51D-08  3  3     0.01
   4      1.02406109    -0.03202713    -2.04359930    -0.00000009    -0.00000000  0.34D-11  0.29D-10  4  4     0.01

 Norm of t1 vector:      0.04358823      S-energy:    -0.00144264      T1 diagnostic:  0.00415662
 Norm of t2 vector:      0.14886624      P-energy:    -0.03058449
                                         Alpha-Beta:  -0.02762150
                                         Alpha-Alpha: -0.00296299
                                         Beta-Beta:    0.00000000

 Spin contamination <S**2-Sz**2-Sz>     0.00813524
  Reference energy                     -2.011572167585
  RHF-RMP2 correlation energy          -0.032027134033
 !RHF-RMP2 energy                      -2.043599301618

 Starting UCCSD calculation

 ITER.      SQ.NORM     CORR.ENERGY   TOTAL ENERGY   ENERGY CHANGE        DEN1      VAR(S)    VAR(P)  DIIS     TIME
   1      1.03422505    -0.03785891    -2.04943108    -0.03785891    -0.00335877  0.18D-03  0.23D-02  1  1     0.01
   2      1.04504791    -0.04255744    -2.05412961    -0.00469853    -0.00010699  0.35D-04  0.56D-04  2  2     0.02
   3      1.04654704    -0.04290427    -2.05447644    -0.00034683    -0.00000919  0.99D-05  0.33D-05  3  3     0.02
   4      1.04705361    -0.04300733    -2.05457950    -0.00010306    -0.00000152  0.23D-05  0.42D-06  4  4     0.03
   5      1.04719131    -0.04301534    -2.05458751    -0.00000801    -0.00000022  0.38D-06  0.49D-07  5  5     0.03
   6      1.04724684    -0.04301904    -2.05459121    -0.00000371    -0.00000003  0.48D-07  0.60D-08  6  6     0.04
   7      1.04726706    -0.04302042    -2.05459259    -0.00000137    -0.00000000  0.33D-08  0.84D-09  6  1     0.04
   8      1.04727296    -0.04302083    -2.05459300    -0.00000041    -0.00000000  0.69D-10  0.95D-10  6  2     0.05

 Norm of t1 vector:      0.05693002      S-energy:    -0.00167360      T1 diagnostic:  0.01167819
                                                                       D1 diagnostic:  0.01857821
 Norm of t2 vector:      0.20983788      P-energy:    -0.04134723
                                         Alpha-Beta:  -0.03779880
                                         Alpha-Alpha: -0.00354843
                                         Beta-Beta:    0.00000000

 Doubles amplitudes (print threshold =  0.500E-01):

         I         J         SYM. A    SYM. B    A         B      T(IJ, AB) [Alpha-Beta]

         1         1         3         3         1         1     -0.06413855
         1         1         5         5         1         1     -0.06413854

 Spin contamination <S**2-Sz**2-Sz>     0.00078395

 Memory could be reduced to 0.45 Mwords without degradation in triples
 

 RESULTS
 =======

  Reference energy                     -2.011572167585
  UCCSD singles energy                 -0.001673603091
  UCCSD pair energy                    -0.041347225698
  UCCSD correlation energy             -0.043020828789
  Triples (T) contribution             -0.000656217336
  Total correlation energy             -0.043677046125
 
  RHF-UCCSD energy                     -2.054592996374
  RHF-UCCSD[T] energy                  -2.055209877077
  RHF-UCCSD-T energy                   -2.055264290864
 !RHF-UCCSD(T) energy                  -2.055249213710

 Program statistics:

 Available memory in ccsd:               511999848
 Min. memory needed in ccsd:                 17408
 Max. memory used in ccsd:                   17874
 Max. memory used in cckext:                 46529 ( 8 integral passes)
 Max. memory used in cckint:                 79576 ( 1 integral passes)



 **********************************************************************************************************************************
 DATASETS  * FILE   NREC   LENGTH (MB)   RECORD NAMES
              1      21        8.27       500      610      700      900      950      970     1000      129      960     1100   
                                          VAR    BASINP    GEOM    SYMINP    ZMAT    AOBASIS   BASIS     P2S    ABASIS      S 
                                         1400     1410     1420     1200     1210     1080     1600     1650     1300     1700   
                                           T        V       ECP      H0       H01     AOSYM     SMH    MOLCAS    ERIS     OPER   
                                         1380   
                                         JKOP   

              2       7        8.83       200      700     1000      520     4202     5202     2101   
                                        OPTIONS   GEOM     BASIS   MCVARS     RHF     MCSCF     RHF  

 PROGRAMS   *        TOTAL  UCCSD(T)       RHF     MULTI       RHF       INT
 CPU TIMES  *         0.72      0.10      0.02      0.08      0.05      0.28
 REAL TIME  *         2.04 SEC
 DISK USED  *        23.84 MB      
 **********************************************************************************************************************************
 SETTING CCSD(1)        =        -2.05524921  AU                              

 DO I                   =         2.00000000   

 Running procedure=IP1

1PROGRAM * RHF-SCF (CLOSED SHELL)       Authors: W. Meyer, H.-J. Werner


 NUMBER OF ELECTRONS:       1+    1-    SPACE SYMMETRY=1    SPIN SYMMETRY: Singlet 
 CONVERGENCE THRESHOLDS:    1.00E-05 (Density)    1.00E-07 (Energy)
 MAX. NUMBER OF ITERATIONS:       60
 INTERPOLATION TYPE:            DIIS
 INTERPOLATION STEPS:              2 (START)      1 (STEP)
 LEVEL SHIFTS:                  0.00 (CLOSED)  0.00 (OPEN) 



 Orbital guess generated from atomic densities. Full valence occupancy:    1   1   1   0   1   0   0   0


 Molecular orbital dump at record        2102.2

 ITERATION    DDIFF          GRAD             ENERGY        2-EL.EN.            DIPOLE MOMENTS         DIIS   ORB.
    1      0.000D+00      0.000D+00        -1.83163612      0.774686    0.00000    0.00000    0.00000    0    start
    2      0.000D+00      0.188D-01        -1.84683527      0.835772    0.00000    0.00000    0.00000    1    diag
    3      0.256D-01      0.370D-02        -1.84760150      0.851796    0.00000    0.00000    0.00000    2    diag
    4      0.797D-02      0.300D-03        -1.84760597      0.852841    0.00000    0.00000    0.00000    3    diag
    5      0.680D-03      0.670D-05        -1.84760597      0.852822    0.00000    0.00000    0.00000    4    diag
    6      0.187D-04      0.800D-06        -1.84760597      0.852822    0.00000    0.00000    0.00000    5    diag
    7      0.191D-05      0.108D-07        -1.84760597      0.852822    0.00000    0.00000    0.00000    0    orth

 Final occupancy:   1   0   0   0   0   0   0

 !RHF STATE 1.1 Energy                 -1.847605968660
 Nuclear energy                         0.00000000
 One-electron energy                   -2.27401704
 Two-electron energy                    0.42641107
 Virial quotient                       -4.24809425
 !RHF STATE 1.1 Dipole moment           0.00000000     0.00000000     0.00000000
 Dipole moment /Debye                   0.00000000     0.00000000     0.00000000

 Orbital energies:

         1.1          2.1          3.1
     -0.710597    -0.101792    -0.016372

         1.2          2.2
     -0.159922    -0.055702

         1.3          2.3
     -0.159922    -0.055702

         1.4          2.4
     -0.016372     0.343785

         1.5          2.5
     -0.159922    -0.055702

         1.6          2.6
     -0.016372     0.343785

         1.7          2.7
     -0.016372     0.343785

 HOMO      1.1    -0.710597 =     -19.3363eV
 LUMO      1.2    -0.159922 =      -4.3517eV
 LUMO-HOMO         0.550675 =      14.9846eV


 **********************************************************************************************************************************
 DATASETS  * FILE   NREC   LENGTH (MB)   RECORD NAMES
              1      21        8.27       500      610      700      900      950      970     1000      129      960     1100   
                                          VAR    BASINP    GEOM    SYMINP    ZMAT    AOBASIS   BASIS     P2S    ABASIS      S 
                                         1400     1410     1420     1200     1210     1080     1600     1650     1300     1700   
                                           T        V       ECP      H0       H01     AOSYM     SMH    MOLCAS    ERIS     OPER   
                                         1380   
                                         JKOP   

              2       8       11.34       200      700     1000      520     4202     5202     2101     2102   
                                        OPTIONS   GEOM     BASIS   MCVARS     RHF     MCSCF     RHF      RHF  

 PROGRAMS   *        TOTAL       RHF  UCCSD(T)       RHF     MULTI       RHF       INT
 CPU TIMES  *         0.78      0.06      0.10      0.02      0.08      0.05      0.28
 REAL TIME  *         2.20 SEC
 DISK USED  *        23.84 MB      
 **********************************************************************************************************************************
 SETTING SCF(2)         =        -1.84760597  AU                              
 SETTING _CC_NORM_MAX   =         2.00000000                                  


1PROGRAM * CCSD (Unrestricted open-shell coupled cluster)     Authors: C. Hampel, H.-J. Werner, 1991, M. Deegan, P.J. Knowles, 1992


 Convergence thresholds:  THRVAR = 1.00D-08  THRDEN = 1.00D-06

 CCSD(T)     terms to be evaluated (factor= 1.000)


 Number of closed-shell orbitals:   1 (   1   0   0   0   0   0   0 )
 Number of external orbitals:      49 (  16   9   9   2   9   2   2 )

 Memory could be reduced to 0.44 Mwords without degradation in triples

 Number of N-1 electron functions:               2
 Number of N-2 electron functions:               1
 Number of singly external CSFs:                32
 Number of doubly external CSFs:               517
 Total number of CSFs:                         549

 Molecular orbitals read from record     2102.2  Type=RHF/CANONICAL (state 1.1)

 Integral transformation finished. Total CPU:   0.00 sec, npass=  1  Memory used:   0.08 MW

 Starting RMP2 calculation

 ITER.      SQ.NORM     CORR.ENERGY   TOTAL ENERGY   ENERGY CHANGE        DEN1      VAR(S)    VAR(P)  DIIS     TIME
   1      1.01350575    -0.02182659    -1.86943256    -0.02182659    -0.00026012  0.17D-17  0.17D-03  1  1     0.00
   2      1.01393869    -0.02212223    -1.86972820    -0.00029564    -0.00000023  0.50D-20  0.14D-06  2  2     0.00
   3      1.01394557    -0.02212515    -1.86973112    -0.00000292    -0.00000000  0.32D-22  0.25D-09  3  3     0.00
   4      1.01394566    -0.02212516    -1.86973113    -0.00000001    -0.00000000  0.30D-24  0.22D-12  4  4     0.00

 Norm of t1 vector:      0.00000000      S-energy:    -0.00000000      T1 diagnostic:  0.00000000
 Norm of t2 vector:      0.11809174      P-energy:    -0.02212516
                                         Alpha-Beta:  -0.02212516
                                         Alpha-Alpha:  0.00000000
                                         Beta-Beta:    0.00000000

 Spin contamination <S**2-Sz**2-Sz>     0.00000000
  Reference energy                     -1.847605968660
  RHF-RMP2 correlation energy          -0.022125159004
 !RHF-RMP2 energy                      -1.869731127664

 Starting UCCSD calculation

 ITER.      SQ.NORM     CORR.ENERGY   TOTAL ENERGY   ENERGY CHANGE        DEN1      VAR(S)    VAR(P)  DIIS     TIME
   1      1.01980484    -0.02589763    -1.87350360    -0.02589763    -0.00237975  0.84D-05  0.15D-02  1  1     0.01
   2      1.02710610    -0.02948233    -1.87708830    -0.00358470    -0.00009302  0.17D-05  0.47D-04  2  2     0.01
   3      1.02833340    -0.02985322    -1.87745919    -0.00037088    -0.00000184  0.23D-07  0.93D-06  3  3     0.01
   4      1.02847968    -0.02989286    -1.87749883    -0.00003964    -0.00000007  0.30D-08  0.41D-07  4  4     0.02
   5      1.02849273    -0.02989548    -1.87750145    -0.00000262    -0.00000000  0.19D-09  0.14D-08  5  5     0.02
   6      1.02849420    -0.02989560    -1.87750157    -0.00000012    -0.00000000  0.15D-10  0.13D-10  6  6     0.02

 Norm of t1 vector:      0.00608843      S-energy:     0.00000000      T1 diagnostic:  0.00304421
                                                                       D1 diagnostic:  0.00430517
 Norm of t2 vector:      0.16869241      P-energy:    -0.02989560
                                         Alpha-Beta:  -0.02989560
                                         Alpha-Alpha:  0.00000000
                                         Beta-Beta:    0.00000000

 Doubles amplitudes (print threshold =  0.500E-01):

         I         J         SYM. A    SYM. B    A         B      T(IJ, AB) [Alpha-Beta]

         1         1         2         2         1         1     -0.05608279
         1         1         3         3         1         1     -0.05608279
         1         1         5         5         1         1     -0.05608279

 Spin contamination <S**2-Sz**2-Sz>     0.00000000

 Memory could be reduced to 0.43 Mwords without degradation in triples
 

 RESULTS
 =======

  Reference energy                     -1.847605968660
  UCCSD singles energy                  0.000000000003
  UCCSD pair energy                    -0.029895603223
  UCCSD correlation energy             -0.029895603220
  Triples (T) contribution              0.000000000000
  Total correlation energy             -0.029895603220
 
  RHF-UCCSD energy                     -1.877501571880
  RHF-UCCSD[T] energy                  -1.877501571880
  RHF-UCCSD-T energy                   -1.877501571880
 !RHF-UCCSD(T) energy                  -1.877501571880

 Program statistics:

 Available memory in ccsd:               511999882
 Min. memory needed in ccsd:                 15308
 Max. memory used in ccsd:                   15308
 Max. memory used in cckext:                 44859 ( 6 integral passes)
 Max. memory used in cckint:                 75944 ( 1 integral passes)



 **********************************************************************************************************************************
 DATASETS  * FILE   NREC   LENGTH (MB)   RECORD NAMES
              1      21        8.27       500      610      700      900      950      970     1000      129      960     1100   
                                          VAR    BASINP    GEOM    SYMINP    ZMAT    AOBASIS   BASIS     P2S    ABASIS      S 
                                         1400     1410     1420     1200     1210     1080     1600     1650     1300     1700   
                                           T        V       ECP      H0       H01     AOSYM     SMH    MOLCAS    ERIS     OPER   
                                         1380   
                                         JKOP   

              2       8       11.34       200      700     1000      520     4202     5202     2101     2102   
                                        OPTIONS   GEOM     BASIS   MCVARS     RHF     MCSCF     RHF      RHF  

 PROGRAMS   *        TOTAL  UCCSD(T)       RHF  UCCSD(T)       RHF     MULTI       RHF       INT
 CPU TIMES  *         0.86      0.07      0.06      0.10      0.02      0.08      0.05      0.28
 REAL TIME  *         2.41 SEC
 DISK USED  *        23.84 MB      
 **********************************************************************************************************************************
 SETTING CCSD(2)        =        -1.87750157  AU                              

 DO I                   =         3.00000000   

 Running procedure=IP2

1PROGRAM * RHF-SCF (OPEN SHELL)       Authors: W. Meyer, H.-J. Werner


 NUMBER OF ELECTRONS:       1+    0-    SPACE SYMMETRY=1    SPIN SYMMETRY: Doublet 
 CONVERGENCE THRESHOLDS:    1.00E-05 (Density)    1.00E-07 (Energy)
 MAX. NUMBER OF ITERATIONS:       60
 INTERPOLATION TYPE:            DIIS
 INTERPOLATION STEPS:              2 (START)      1 (STEP)
 LEVEL SHIFTS:                 -0.30 (CLOSED)  0.00 (OPEN) 



 Orbital guess generated from atomic densities. Full valence occupancy:    1   1   1   0   1   0   0   0


 Molecular orbital dump at record        2103.2

 ITERATION    DDIFF          GRAD             ENERGY        2-EL.EN.            DIPOLE MOMENTS         DIIS   ORB.
    1      0.000D+00      0.000D+00        -1.10948960      0.000000    0.00000    0.00000    0.00000    0    start
    2      0.000D+00      0.197D-01        -1.14513708     -0.000000    0.00000    0.00000    0.00000    1    diag,B
    3      0.285D-01      0.598D-02        -1.14848837      0.000000    0.00000    0.00000    0.00000    2    diag,B
    4      0.144D-01      0.128D-03        -1.14848927      0.000000    0.00000    0.00000    0.00000    3    diag,B
    5      0.150D-03      0.918D-05        -1.14848928     -0.000000    0.00000    0.00000    0.00000    4    diag,B
    6      0.176D-04      0.624D-06        -1.14848928     -0.000000    0.00000    0.00000    0.00000    5    diag,B
    7      0.140D-05      0.155D-08        -1.14848928     -0.000000    0.00000    0.00000    0.00000    0    orth

 Final alpha occupancy:   1   0   0   0   0   0   0
 Final beta  occupancy:   0   0   0   0   0   0   0

 !RHF STATE 1.1 Energy                 -1.148489277890
 Nuclear energy                         0.00000000
 One-electron energy                   -1.14848928
 Two-electron energy                   -0.00000000
 Virial quotient                       -4.29417843
 !RHF STATE 1.1 Dipole moment           0.00000000     0.00000000     0.00000000
 Dipole moment /Debye                   0.00000000     0.00000000     0.00000000

 Orbital energies:

         1.1          2.1          3.1
     -1.148489    -0.297989    -0.225688

         1.2          2.2
     -0.458789    -0.191520

         1.3          2.3
     -0.458789    -0.191520

         1.4          2.4
     -0.225688     0.040551

         1.5          2.5
     -0.458789    -0.191520

         1.6          2.6
     -0.225688     0.040551

         1.7          2.7
     -0.225688     0.040551

 HOMO      1.1    -1.148489 =     -31.2520eV
 LUMO      1.2    -0.458789 =     -12.4843eV
 LUMO-HOMO         0.689700 =      18.7677eV


 **********************************************************************************************************************************
 DATASETS  * FILE   NREC   LENGTH (MB)   RECORD NAMES
              1      21        8.27       500      610      700      900      950      970     1000      129      960     1100   
                                          VAR    BASINP    GEOM    SYMINP    ZMAT    AOBASIS   BASIS     P2S    ABASIS      S 
                                         1400     1410     1420     1200     1210     1080     1600     1650     1300     1700   
                                           T        V       ECP      H0       H01     AOSYM     SMH    MOLCAS    ERIS     OPER   
                                         1380   
                                         JKOP   

              2       9       13.86       200      700     1000      520     4202     5202     2101     2102     2103   
                                        OPTIONS   GEOM     BASIS   MCVARS     RHF     MCSCF     RHF      RHF      RHF  

 PROGRAMS   *        TOTAL       RHF  UCCSD(T)       RHF  UCCSD(T)       RHF     MULTI       RHF       INT
 CPU TIMES  *         0.93      0.06      0.07      0.06      0.10      0.02      0.08      0.05      0.28
 REAL TIME  *         2.57 SEC
 DISK USED  *        23.84 MB      
 **********************************************************************************************************************************
 SETTING SCF(3)         =        -1.14848928  AU                              
 SETTING _CC_NORM_MAX   =         2.00000000                                  


1PROGRAM * CCSD (Unrestricted open-shell coupled cluster)     Authors: C. Hampel, H.-J. Werner, 1991, M. Deegan, P.J. Knowles, 1992


 Convergence thresholds:  THRVAR = 1.00D-08  THRDEN = 1.00D-06

 CCSD(T)     terms to be evaluated (factor= 1.000)


 Number of active  orbitals:        1 (   1   0   0   0   0   0   0 )
 Number of external orbitals:      49 (  16   9   9   2   9   2   2 )

 Memory could be reduced to 0.43 Mwords without degradation in triples

 Number of N-1 electron functions:               1
 Number of N-2 electron functions:               0
 Number of singly external CSFs:                17
 Number of doubly external CSFs:                 0
 Total number of CSFs:                          17

 Molecular orbitals read from record     2103.2  Type=RHF/CANONICAL (state 1.1)

 Integral transformation finished. Total CPU:   0.01 sec, npass=  1  Memory used:   0.08 MW

 Starting RMP2 calculation

 ITER.      SQ.NORM     CORR.ENERGY   TOTAL ENERGY   ENERGY CHANGE        DEN1      VAR(S)    VAR(P)  DIIS     TIME
   1      1.00000000    -0.00000000    -1.14848928     0.00000000    -0.00000000  0.30D-19  0.00D+00  1  1     0.01

 Norm of t1 vector:      0.00000000      S-energy:    -0.00000000      T1 diagnostic:  0.00000000
 Norm of t2 vector:      0.00000000      P-energy:     0.00000000
                                         Alpha-Beta:   0.00000000
                                         Alpha-Alpha:  0.00000000
                                         Beta-Beta:    0.00000000

 Spin contamination <S**2-Sz**2-Sz>     0.00000000
  Reference energy                     -1.148489277890
  RHF-RMP2 correlation energy          -0.000000000000
 !RHF-RMP2 energy                      -1.148489277890

 Starting UCCSD calculation

 ITER.      SQ.NORM     CORR.ENERGY   TOTAL ENERGY   ENERGY CHANGE        DEN1      VAR(S)    VAR(P)  DIIS     TIME
   1      1.00000000    -0.00000000    -1.14848928     0.00000000    -0.00000000  0.15D-17  0.00D+00  1  1     0.01

 Norm of t1 vector:      0.00000000      S-energy:    -0.00000000      T1 diagnostic:  0.00000000
                                                                       D1 diagnostic:  0.00000000
 Norm of t2 vector:      0.00000000      P-energy:     0.00000000
                                         Alpha-Beta:   0.00000000
                                         Alpha-Alpha:  0.00000000
                                         Beta-Beta:    0.00000000

 Spin contamination <S**2-Sz**2-Sz>     0.00000000

 Memory could be reduced to 0.44 Mwords without degradation in triples
 

 RESULTS
 =======

  Reference energy                     -1.148489277890
  UCCSD singles energy                 -0.000000000000
  UCCSD pair energy                     0.000000000000
  UCCSD correlation energy             -0.000000000000
  Triples (T) contribution              0.000000000000
  Total correlation energy             -0.000000000000
 
  RHF-UCCSD energy                     -1.148489277890
  RHF-UCCSD[T] energy                  -1.148489277890
  RHF-UCCSD-T energy                   -1.148489277890
 !RHF-UCCSD(T) energy                  -1.148489277890

 Program statistics:

 Available memory in ccsd:               511999882
 Min. memory needed in ccsd:                 14785
 Max. memory used in ccsd:                   14785
 Max. memory used in cckext:                 43674 ( 1 integral passes)
 Max. memory used in cckint:                 75984 ( 1 integral passes)



 **********************************************************************************************************************************
 DATASETS  * FILE   NREC   LENGTH (MB)   RECORD NAMES
              1      21        8.27       500      610      700      900      950      970     1000      129      960     1100   
                                          VAR    BASINP    GEOM    SYMINP    ZMAT    AOBASIS   BASIS     P2S    ABASIS      S 
                                         1400     1410     1420     1200     1210     1080     1600     1650     1300     1700   
                                           T        V       ECP      H0       H01     AOSYM     SMH    MOLCAS    ERIS     OPER   
                                         1380   
                                         JKOP   

              2       9       13.86       200      700     1000      520     4202     5202     2101     2102     2103   
                                        OPTIONS   GEOM     BASIS   MCVARS     RHF     MCSCF     RHF      RHF      RHF  

 PROGRAMS   *        TOTAL  UCCSD(T)       RHF  UCCSD(T)       RHF  UCCSD(T)       RHF     MULTI       RHF       INT
 CPU TIMES  *         0.99      0.06      0.06      0.07      0.06      0.10      0.02      0.08      0.05      0.28
 REAL TIME  *         2.73 SEC
 DISK USED  *        23.84 MB      
 **********************************************************************************************************************************
 SETTING CCSD(3)        =        -1.14848928  AU                              

 DO I                   =         4.00000000   

 Running procedure=EA

1PROGRAM * RHF-SCF (OPEN SHELL)       Authors: W. Meyer, H.-J. Werner


 NUMBER OF ELECTRONS:       3+    1-    SPACE SYMMETRY=4    SPIN SYMMETRY: Triplet 
 CONVERGENCE THRESHOLDS:    1.00E-05 (Density)    1.00E-07 (Energy)
 MAX. NUMBER OF ITERATIONS:       60
 INTERPOLATION TYPE:            DIIS
 INTERPOLATION STEPS:              2 (START)      1 (STEP)
 LEVEL SHIFTS:                 -0.30 (CLOSED)  0.00 (OPEN) 


 Singly occupied orbitals:      1.2       1.3
 Orbital guess generated from atomic densities. Full valence occupancy:    1   1   1   0   1   0   0   0


 Molecular orbital dump at record        4202.2

 ITERATION    DDIFF          GRAD             ENERGY        2-EL.EN.            DIPOLE MOMENTS         DIIS   ORB.
    1      0.000D+00      0.000D+00        -1.99390471      3.003041    0.00000    0.00000    0.00000    0    start
    2      0.000D+00      0.724D-02        -2.00109918      2.851188    0.00000    0.00000    0.00000    1    diag,B
    3      0.927D-02      0.284D-02        -2.00270615      2.783590    0.00000    0.00000    0.00000    2    diag,B
    4      0.735D-02      0.127D-02        -2.00309777      2.757712    0.00000    0.00000    0.00000    3    diag,B
    5      0.612D-02      0.347D-03        -2.00313365      2.749199    0.00000    0.00000    0.00000    4    diag,B
    6      0.164D-02      0.117D-03        -2.00313701      2.747623    0.00000    0.00000    0.00000    5    diag,B
    7      0.427D-03      0.874D-05        -2.00313702      2.747709    0.00000    0.00000    0.00000    6    fixocc
    8      0.302D-04      0.186D-05        -2.00313702      2.747677    0.00000    0.00000    0.00000    7    diag,B
    9      0.734D-05      0.397D-06        -2.00313702      2.747667    0.00000    0.00000    0.00000    0    orth

 Final alpha occupancy:   1   1   1   0   0   0   0
 Final beta  occupancy:   1   0   0   0   0   0   0

 !RHF STATE 1.4 Energy                 -2.003137021176
 Nuclear energy                         0.00000000
 One-electron energy                   -3.37697045
 Two-electron energy                    1.37383343
 Virial quotient                       -3.30587196
 !RHF STATE 1.4 Dipole moment           0.00000000     0.00000000     0.00000000
 Dipole moment /Debye                   0.00000000     0.00000000     0.00000000

 Orbital energies:

         1.1          2.1          3.1
     -0.307693     0.138203     0.263015

         1.2          2.2          3.2
     -0.006956     0.169378     0.580328

         1.3          2.3          3.3
     -0.006956     0.169378     0.580328

         1.4          2.4
      0.263015     0.712899

         1.5          2.5
      0.121650     0.205008

         1.6          2.6
      0.270524     0.711958

         1.7          2.7
      0.270524     0.711958

 HOMO      1.2    -0.006956 =      -0.1893eV
 LUMO      1.5     0.121650 =       3.3103eV
 LUMO-HOMO         0.128606 =       3.4995eV


 **********************************************************************************************************************************
 DATASETS  * FILE   NREC   LENGTH (MB)   RECORD NAMES
              1      21        8.27       500      610      700      900      950      970     1000      129      960     1100   
                                          VAR    BASINP    GEOM    SYMINP    ZMAT    AOBASIS   BASIS     P2S    ABASIS      S 
                                         1400     1410     1420     1200     1210     1080     1600     1650     1300     1700   
                                           T        V       ECP      H0       H01     AOSYM     SMH    MOLCAS    ERIS     OPER   
                                         1380   
                                         JKOP   

              2       9       13.86       200      700     1000      520     4202     5202     2101     2102     2103   
                                        OPTIONS   GEOM     BASIS   MCVARS     RHF     MCSCF     RHF      RHF      RHF  

 PROGRAMS   *        TOTAL       RHF  UCCSD(T)       RHF  UCCSD(T)       RHF  UCCSD(T)       RHF     MULTI       RHF       INT
 CPU TIMES  *         1.07      0.08      0.06      0.06      0.07      0.06      0.10      0.02      0.08      0.05      0.28
 REAL TIME  *         2.90 SEC
 DISK USED  *        23.84 MB      
 **********************************************************************************************************************************

1PROGRAM * MULTI (Direct Multiconfiguration SCF)       Authors: P.J. Knowles, H.-J. Werner (1984)     S.T. Elbert (1988)


 Number of closed-shell orbitals:   1 (   1   0   0   0   0   0   0   0 )
 Number of active  orbitals:        3 (   0   1   1   0   1   0   0   0 )
 Number of external orbitals:      46 (  16   8   8   2   8   2   2   0 )

 State symmetry 1

 Number of electrons:     2    Spin symmetry=Triplet   Space symmetry=4
 Number of states:        1
 Number of CSFs:          1   (1 determinants, 3 intermediate states)

 State symmetry 2

 Number of electrons:     2    Spin symmetry=Triplet   Space symmetry=6
 Number of states:        1
 Number of CSFs:          1   (1 determinants, 3 intermediate states)

 State symmetry 3

 Number of electrons:     2    Spin symmetry=Triplet   Space symmetry=7
 Number of states:        1
 Number of CSFs:          1   (1 determinants, 3 intermediate states)

 Molecular orbitals read from record     4202.2  Type=RHF/CANONICAL (state 1.4)
 *** IN SYMMETRY 1 ORBITAL  1 SYMMETRY CONTAMINATION OF 0.110D-01 HAS BEEN REMOVED

 EXTRA SYMMETRY OF MOS IN SYMMETRY 1:   1 1 3 2 1 2 3 1 1 1   1 1 1 1 1 1 1

 Wavefunction dump at record             5202.2

 Convergence thresholds  0.10E-01 (gradient)  0.10E-05 (energy)  0.10E-02 (step length)

 Weight factors for state symmetry  1:    0.33333
 Weight factors for state symmetry  2:    0.33333
 Weight factors for state symmetry  3:    0.33333

 Number of orbital rotations:       40   (     0 Core/Active     16 Core/Virtual   0 Active/Active     24 Active/Virtual)
 Total number of variables:         43


 ITER. MIC  NCI  NEG     ENERGY(VAR)     ENERGY(PROJ)   ENERGY CHANGE     GRAD(0)  GRAD(ORB)   GRAD(CI)     STEP       TIME

   1   27   12    0      -1.99196718      -2.00347043   -0.01150326    0.03256798 0.00000000 0.00000000  0.50D+00      0.02
   2   17   12    0      -2.00270888      -2.00306910   -0.00036022    0.01048288 0.00000000 0.00000000  0.75D-01      0.03
   3   18   12    0      -2.00307507      -2.00307532   -0.00000025    0.00024037 0.00000000 0.00000000  0.21D-02      0.03
   4   18   12    0      -2.00307532      -2.00307532   -0.00000000    0.00000017 0.00000000 0.00000000  0.15D-05      0.04

 ** WVFN ****  CONVERGENCE REACHED, FINAL GRADIENT:  0.73D-13



 Results for state 1.4
 =====================

 !MCSCF STATE 1.4 Energy               -2.003075318600
 Nuclear energy                         0.00000000
 Kinetic energy                         0.60580676
 One electron energy                   -3.37682169
 Two electron energy                    1.37374638
 Virial ratio                           4.30645918

 !MCSCF STATE 1.4 Dipole moment         0.00000000     0.00000000     0.00000000
 Dipole moment /Debye                   0.00000000     0.00000000     0.00000000



 Results for state 1.6
 =====================

 !MCSCF STATE 1.6 Energy               -2.003075318600
 Nuclear energy                         0.00000000
 Kinetic energy                         0.60580676
 One electron energy                   -3.37682169
 Two electron energy                    1.37374638
 Virial ratio                           4.30645918

 !MCSCF STATE 1.6 Dipole moment         0.00000000     0.00000000     0.00000000
 Dipole moment /Debye                   0.00000000     0.00000000     0.00000000



 Results for state 1.7
 =====================

 !MCSCF STATE 1.7 Energy               -2.003075318600
 Nuclear energy                         0.00000000
 Kinetic energy                         0.60580676
 One electron energy                   -3.37682169
 Two electron energy                    1.37374638
 Virial ratio                           4.30645918

 !MCSCF STATE 1.7 Dipole moment         0.00000000     0.00000000     0.00000000
 Dipole moment /Debye                   0.00000000     0.00000000     0.00000000

 State-averaged charge density matrix saved on record  5202.2 (density set 1)


 NATURAL ORBITALS (state averaged)
 =================================

   Orb     Occ        Energy       Coefficients

                                   1 1s      1 1s      1 1s      1 1s      1 1s      1 1s      1 1s      1 1s      1 1s      1 1s   
                                   1 1s      1 1s      1 1s      1 3d0     1 3d2+    1 3d0     1 3d2+ 

   1.1  2.00000    -0.307751     0.000000 -0.000003  0.000022 -0.000119  0.000533 -0.002057  0.007111 -0.021815  0.023688 -0.059601
                                 0.730716  0.292924  0.054928  0.000000  0.000000  0.000000  0.000000

                                   1 2px     1 2px     1 2px     1 2px     1 2px     1 2px     1 2px     1 2px     1 2px  

   1.2  0.66667     0.108530    -0.000006  0.000050 -0.000262  0.001049 -0.001643 -0.033373  0.216753  0.472746  0.529451

                                   1 2py     1 2py     1 2py     1 2py     1 2py     1 2py     1 2py     1 2py     1 2py  

   1.3  0.66667     0.108530    -0.000006  0.000050 -0.000262  0.001049 -0.001643 -0.033373  0.216753  0.472746  0.529451

                                   1 2pz     1 2pz     1 2pz     1 2pz     1 2pz     1 2pz     1 2pz     1 2pz     1 2pz  

   1.5  0.66667     0.108530    -0.000006  0.000050 -0.000262  0.001049 -0.001643 -0.033373  0.216753  0.472746  0.529451

 Total charge:  -1.000000000000
 

 EXTRA SYMMETRY OF MOS IN SYMMETRY 1:   1 1 2 3 1 2 3 1 1 1   1 1 1 1 1 1 1

 Natural orbital dump (state averaged) at molpro section  5202.2    (Orbital set 2)


 CI vector for state symmetry 1
 ==============================

 a a 0           1.0000000

 TOTAL ENERGIES                        -2.00307532

 CI vector for state symmetry 2
 ==============================

 a 0 a           1.0000000

 TOTAL ENERGIES                        -2.00307532

 CI vector for state symmetry 3
 ==============================

 0 a a           1.0000000

 TOTAL ENERGIES                        -2.00307532



 **********************************************************************************************************************************
 DATASETS  * FILE   NREC   LENGTH (MB)   RECORD NAMES
              1      21        8.27       500      610      700      900      950      970     1000      129      960     1100   
                                          VAR    BASINP    GEOM    SYMINP    ZMAT    AOBASIS   BASIS     P2S    ABASIS      S 
                                         1400     1410     1420     1200     1210     1080     1600     1650     1300     1700   
                                           T        V       ECP      H0       H01     AOSYM     SMH    MOLCAS    ERIS     OPER   
                                         1380   
                                         JKOP   

              2       9       13.86       200      700     1000      520     4202     5202     2101     2102     2103   
                                        OPTIONS   GEOM     BASIS   MCVARS     RHF     MCSCF     RHF      RHF      RHF  

 PROGRAMS   *        TOTAL     MULTI       RHF  UCCSD(T)       RHF  UCCSD(T)       RHF  UCCSD(T)       RHF     MULTI       RHF
 CPU TIMES  *         1.14      0.06      0.08      0.06      0.06      0.07      0.06      0.10      0.02      0.08      0.05
 REAL TIME  *         3.42 SEC
 DISK USED  *        31.41 MB      
 **********************************************************************************************************************************

1PROGRAM * RHF-SCF (OPEN SHELL)       Authors: W. Meyer, H.-J. Werner


 NUMBER OF ELECTRONS:       3+    1-    SPACE SYMMETRY=4    SPIN SYMMETRY: Triplet 
 CONVERGENCE THRESHOLDS:    1.00E-05 (Density)    1.00E-07 (Energy)
 MAX. NUMBER OF ITERATIONS:        0
 INTERPOLATION TYPE:            DIIS
 INTERPOLATION STEPS:              2 (START)      1 (STEP)
 LEVEL SHIFTS:                 -0.30 (CLOSED)  0.00 (OPEN) 


 Singly occupied orbitals:      1.2       1.3
 Molecular orbitals read from record     5202.2  Type=MCSCF/NATURAL  

 Molecular orbital dump at record        2105.2

 ITERATION    DDIFF          GRAD             ENERGY        2-EL.EN.            DIPOLE MOMENTS         DIIS   ORB.
    1      0.000D+00      0.000D+00        -2.00307532      2.747493    0.00000    0.00000    0.00000    0    start

 Final alpha occupancy:   1   1   1   0   0   0   0
 Final beta  occupancy:   1   0   0   0   0   0   0

 !RHF STATE 1.4 Energy                 -2.003075318600
 Nuclear energy                         0.00000000
 One-electron energy                   -3.37682169
 Two-electron energy                    1.37374638
 Virial quotient                       -3.30645918
 !RHF STATE 1.4 Dipole moment           0.00000000     0.00000000     0.00000000
 Dipole moment /Debye                   0.00000000     0.00000000     0.00000000

 Orbital energies:

         1.1          2.1          3.1
     -0.307751     0.156696     0.285644

         1.2          2.2          3.2
      0.108530     0.186996     0.592443

         1.3          2.3          3.3
      0.108530     0.186996     0.592443

         1.4          2.4
      0.285644     0.724896

         1.5          2.5
      0.108530     0.186996

         1.6          2.6
      0.285644     0.724896

         1.7          2.7
      0.285644     0.724896

 HOMO      1.2     0.108530 =       2.9532eV
 LUMO      1.5     0.108530 =       2.9532eV
 LUMO-HOMO        -0.000000 =      -0.0000eV


 **********************************************************************************************************************************
 DATASETS  * FILE   NREC   LENGTH (MB)   RECORD NAMES
              1      21        8.27       500      610      700      900      950      970     1000      129      960     1100   
                                          VAR    BASINP    GEOM    SYMINP    ZMAT    AOBASIS   BASIS     P2S    ABASIS      S 
                                         1400     1410     1420     1200     1210     1080     1600     1650     1300     1700   
                                           T        V       ECP      H0       H01     AOSYM     SMH    MOLCAS    ERIS     OPER   
                                         1380   
                                         JKOP   

              2      10       16.37       200      700     1000      520     4202     5202     2101     2102     2103     2105   
                                        OPTIONS   GEOM     BASIS   MCVARS     RHF     MCSCF     RHF      RHF      RHF      RHF  

 PROGRAMS   *        TOTAL       RHF     MULTI       RHF  UCCSD(T)       RHF  UCCSD(T)       RHF  UCCSD(T)       RHF     MULTI
 CPU TIMES  *         1.17      0.02      0.06      0.08      0.06      0.06      0.07      0.06      0.10      0.02      0.08
 REAL TIME  *         3.50 SEC
 DISK USED  *        31.41 MB      
 **********************************************************************************************************************************
 SETTING SCF(4)         =        -2.00307532  AU                              
 SETTING _CC_NORM_MAX   =         2.00000000                                  


1PROGRAM * CCSD (Unrestricted open-shell coupled cluster)     Authors: C. Hampel, H.-J. Werner, 1991, M. Deegan, P.J. Knowles, 1992


 Convergence thresholds:  THRVAR = 1.00D-08  THRDEN = 1.00D-06

 CCSD(T)     terms to be evaluated (factor= 1.000)


 Number of closed-shell orbitals:   1 (   1   0   0   0   0   0   0 )
 Number of active  orbitals:        2 (   0   1   1   0   0   0   0 )
 Number of external orbitals:      47 (  16   8   8   2   9   2   2 )

 Memory could be reduced to 0.47 Mwords without degradation in triples

 Number of N-1 electron functions:               4
 Number of N-2 electron functions:               6
 Number of singly external CSFs:                50
 Number of doubly external CSFs:              1804
 Total number of CSFs:                        1854

 Molecular orbitals read from record     2105.2  Type=RHF/CANONICAL (state 1.4)

 Integral transformation finished. Total CPU:   0.01 sec, npass=  1  Memory used:   0.08 MW

 Starting RMP2 calculation

 ITER.      SQ.NORM     CORR.ENERGY   TOTAL ENERGY   ENERGY CHANGE        DEN1      VAR(S)    VAR(P)  DIIS     TIME
   1      1.03567416    -0.03984206    -2.04291738    -0.03984206    -0.00077152  0.55D-04  0.76D-03  1  1     0.02
   2      1.03818793    -0.04078326    -2.04385858    -0.00094120    -0.00000915  0.26D-06  0.13D-04  2  2     0.02
   3      1.03842740    -0.04081971    -2.04389503    -0.00003645    -0.00000012  0.53D-08  0.17D-06  3  3     0.02
   4      1.03843875    -0.04082041    -2.04389573    -0.00000070    -0.00000000  0.88D-10  0.16D-08  4  4     0.02

 Norm of t1 vector:      0.04524929      S-energy:    -0.00127718      T1 diagnostic:  0.00295486
 Norm of t2 vector:      0.19076491      P-energy:    -0.03954324
                                         Alpha-Beta:  -0.03021997
                                         Alpha-Alpha: -0.00932326
                                         Beta-Beta:    0.00000000

 Spin contamination <S**2-Sz**2-Sz>     0.00511120
  Reference energy                     -2.003075318600
  RHF-RMP2 correlation energy          -0.040820413336
 !RHF-RMP2 energy                      -2.043895731936

 Starting UCCSD calculation

 ITER.      SQ.NORM     CORR.ENERGY   TOTAL ENERGY   ENERGY CHANGE        DEN1      VAR(S)    VAR(P)  DIIS     TIME
   1      1.04951735    -0.04648557    -2.04956089    -0.04648557    -0.00426725  0.39D-03  0.36D-02  1  1     0.02
   2      1.06798032    -0.05241887    -2.05549419    -0.00593330    -0.00026176  0.23D-03  0.21D-03  2  2     0.03
   3      1.07398922    -0.05313647    -2.05621179    -0.00071760    -0.00004093  0.48D-04  0.31D-04  3  3     0.04
   4      1.07781008    -0.05348771    -2.05656303    -0.00035124    -0.00000464  0.52D-05  0.29D-05  4  4     0.05
   5      1.07872234    -0.05350626    -2.05658157    -0.00001855    -0.00000045  0.57D-06  0.22D-06  5  5     0.05
   6      1.07894403    -0.05351813    -2.05659345    -0.00001187    -0.00000007  0.12D-06  0.25D-07  6  6     0.06
   7      1.07900629    -0.05352141    -2.05659673    -0.00000329    -0.00000001  0.27D-07  0.61D-08  6  1     0.07
   8      1.07903374    -0.05352265    -2.05659797    -0.00000123    -0.00000000  0.56D-08  0.19D-08  6  2     0.07
   9      1.07904976    -0.05352334    -2.05659866    -0.00000069    -0.00000000  0.43D-09  0.31D-09  6  5     0.08

 Norm of t1 vector:      0.09100316      S-energy:    -0.00148903      T1 diagnostic:  0.02667478
                                                                       D1 diagnostic:  0.03728621
 Norm of t2 vector:      0.26602291      P-energy:    -0.05203431
                                         Alpha-Beta:  -0.03991708
                                         Alpha-Alpha: -0.01211722
                                         Beta-Beta:    0.00000000

 Singles amplitudes (print threshold =  0.500E-01):

         I         SYM. A    A   T(IA) [Alpha-Alpha]

         2         2         2     -0.05118331
         3         3         2     -0.05118331

 Doubles amplitudes (print threshold =  0.500E-01):

         I         J         SYM. A    SYM. B    A         B      T(IJ, AB) [Alpha-Alpha]

         3         2         1         4         3         1      0.07400571
         3         2         2         3         2         2      0.10612200
         3         2         3         2         2         2     -0.10612200
         3         2         4         1         1         3     -0.07400571

 Spin contamination <S**2-Sz**2-Sz>     0.00213783

 Memory could be reduced to 0.49 Mwords without degradation in triples
 

 RESULTS
 =======

  Reference energy                     -2.003075318600
  UCCSD singles energy                 -0.001489033631
  UCCSD pair energy                    -0.052034307102
  UCCSD correlation energy             -0.053523340733
  Triples (T) contribution             -0.001540380810
  Total correlation energy             -0.055063721543
 
  RHF-UCCSD energy                     -2.056598659333
  RHF-UCCSD[T] energy                  -2.058147110563
  RHF-UCCSD-T energy                   -2.058134401778
 !RHF-UCCSD(T) energy                  -2.058139040143

 Program statistics:

 Available memory in ccsd:               511999798
 Min. memory needed in ccsd:                 20079
 Max. memory used in ccsd:                   21298
 Max. memory used in cckext:                 48880 ( 9 integral passes)
 Max. memory used in cckint:                 81212 ( 1 integral passes)



 **********************************************************************************************************************************
 DATASETS  * FILE   NREC   LENGTH (MB)   RECORD NAMES
              1      21        8.27       500      610      700      900      950      970     1000      129      960     1100   
                                          VAR    BASINP    GEOM    SYMINP    ZMAT    AOBASIS   BASIS     P2S    ABASIS      S 
                                         1400     1410     1420     1200     1210     1080     1600     1650     1300     1700   
                                           T        V       ECP      H0       H01     AOSYM     SMH    MOLCAS    ERIS     OPER   
                                         1380   
                                         JKOP   

              2      10       16.37       200      700     1000      520     4202     5202     2101     2102     2103     2105   
                                        OPTIONS   GEOM     BASIS   MCVARS     RHF     MCSCF     RHF      RHF      RHF      RHF  

 PROGRAMS   *        TOTAL  UCCSD(T)       RHF     MULTI       RHF  UCCSD(T)       RHF  UCCSD(T)       RHF  UCCSD(T)       RHF
 CPU TIMES  *         1.31      0.12      0.02      0.06      0.08      0.06      0.06      0.07      0.06      0.10      0.02
 REAL TIME  *         3.79 SEC
 DISK USED  *        31.41 MB      
 **********************************************************************************************************************************
 SETTING CCSD(4)        =        -2.05813904  AU                              
 Output type csv         
                                                                                                                                                                                                                                                                

      SCF,CCSD
   -2.01157217,   -2.05524921
   -1.84760597,   -1.87750157
   -1.14848928,   -1.14848928
   -2.00307532,   -2.05813904
                                                  

        UCCSD(T)        RHF-SCF         MULTI           RHF-SCF         UCCSD(T)        RHF-SCF         UCCSD(T)        RHF-SCF 
     -2.05813904     -2.00307532     -2.00307532     -2.00313702     -1.14848928     -1.14848928     -1.87750157     -1.84760597
 **********************************************************************************************************************************
 Variable memory released
