
 Primary working directories    : /tmp/cmelton
 Secondary working directories  : /tmp/cmelton
 Wavefunction directory         : /remote/cmelton/wfu/
 Main file repository           : /tmp/cmelton/

 SHA1      : 4c1979699e6aeda0524d0210415ba82a958648b0
 NAME      : 2012.1.39
 ARCHNAME  : Linux/x86_64
 FC        : /projects/sems/install/rhel6-x86_64/sems/compiler/intel/16.0.1/base/bin/ifort
 FCVERSION : 16.0.1
 BLASLIB   : -L/projects/sems/install/rhel6-x86_64/sems/compiler/intel/16.0.1/base/compilers_and_libraries_2016.1.150/linux/mkl/lib/intel64 -lmkl_intel_ilp64 -lmkl_sequential -lmkl_core
 id        : sandiacon

 Nodes             nprocs
 s989256.sandia.gov    1

 Using customized tuning parameters: mindgm=7; mindgv=16; mindgc=1; mindgr=1; noblas=0; minvec=7
 default implementation of scratch files=df  

 ***,Calculation for Be atom, singlet and triplet
 memory,512,m
 gthresh,twoint=1.0E-12
 geometry={
 1
 Al
 Al  0.0 0.0 0.0
 }
 
 basis={
 ecp,Al,10,2,0;
 3;
 1,2.978096,3.0;
 3,9.96813,8.934288;
 2,2.721415,-9.402794;
 1;
 2,1.910508,17.571802;
 1;
 2,1.698219,12.148665;
 Including file aug-cc-pVTZ.basis
 }
 
 Including file Al/Ne-core/basis/states.proc
 
 do i=1,4
 if (i.eq.1) then
     GS
 else if (i.eq.2) then
     IP1
 else if (i.eq.3) then
     IP2
 else if (i.eq.4) then
     EA
 endif
 scf(i)=energy
 _CC_NORM_MAX=2.0
 {uccsd(t),maxit=400;core}
 ccsd(i)=energy
 enddo
 
 table,scf,ccsd
 save
 type,csv

 Variables initialized (782), CPU time= 0.01 sec
 Commands  initialized (547), CPU time= 0.01 sec, 517 directives.
 Default parameters read. Elapsed time= 0.23 sec

 Checking input...
 Passed
1


                                         ***  PROGRAM SYSTEM MOLPRO  ***
                         Copyright, University College Cardiff Consultants Limited, 2008

                                    Version 2012.1 linked Aug  2 2016 14:07:26


 **********************************************************************************************************************************
 LABEL *   Calculation for Be atom, singlet and triplet                                  
 Linux-3.10.0-693.21.1.el7.x86_64/s989256.sandia.gov(x86_64) 64 bit serial version       DATE: 01-May-18          TIME: 09:05:42  
 **********************************************************************************************************************************

 SHA1:             4c1979699e6aeda0524d0210415ba82a958648b0
 **********************************************************************************************************************************

 THRESHOLDS:

 ZERO    =  1.00D-12  ONEINT  =  1.00D-12  TWOINT  =  1.00D-12  PREFAC  =  1.00D-14  LOCALI  =  1.00D-09  EORDER  =  1.00D-04
 ENERGY  =  0.00D+00  ETEST   =  0.00D+00  EDENS   =  0.00D+00  THRDEDEF=  1.00D-06  GRADIENT=  1.00D-02  STEP    =  1.00D-03
 ORBITAL =  1.00D-05  CIVEC   =  1.00D-05  COEFF   =  1.00D-04  PRINTCI =  5.00D-02  PUNCHCI =  9.90D+01  OPTGRAD =  3.00D-04
 OPTENERG=  1.00D-06  OPTSTEP =  3.00D-04  THRGRAD =  1.00D-10  COMPRESS=  1.00D-11  VARMIN  =  1.00D-07  VARMAX  =  1.00D-03
 THRDOUB =  0.00D+00  THRDIV  =  1.00D-05  THRRED  =  1.00D-07  THRPSP  =  1.00D+00  THRDC   =  1.00D-10  THRCS   =  1.00D-10
 THRNRM  =  1.00D-08  THREQ   =  0.00D+00  THRDE   =  1.00D+00  THRREF  =  1.00D-05  SPARFAC =  1.00D+00  THRDLP  =  1.00D-07
 THRDIA  =  1.00D-10  THRDLS  =  1.00D-07  THRGPS  =  0.00D+00  THRKEX  =  0.00D+00  THRDIS  =  2.00D-01  THRVAR  =  1.00D-10
 THRLOC  =  1.00D-06  THRGAP  =  1.00D-06  THRLOCT = -1.00D+00  THRGAPT = -1.00D+00  THRORB  =  1.00D-06  THRMLTP =  0.00D+00
 THRCPQCI=  1.00D-10  KEXTA   =  0.00D+00  THRCOARS=  0.00D+00  SYMTOL  =  1.00D-06  GRADTOL =  1.00D-06  THROVL  =  1.00D-08
 THRORTH =  1.00D-08  GRID    =  1.00D-06  GRIDMAX =  1.00D-03  DTMAX   =  0.00D+00  THROCCDE=  1.00D-01  THROCCDE=  1.00D-01



Geometry recognized as XYZ


 Variable memory set to  512000000 words,  buffer space   230000 words

 SETTING BASIS          =    USERDEF

 DO I                   =         1.00000000   

 Running procedure=GS


 Recomputing integrals since basis changed


 Using spherical harmonics


1PROGRAM * SEWARD (Integral evaluation for generally contracted gaussian basis sets)     Author: Roland Lindh, 1990

 Geometry written to block  1 of record 700

 Orientation using atomic masses  
 Molecule type: Atom
 Symmetry elements: X,Y,Z
 Rotational constants:       0.0000000      0.0000000      0.0000000 GHz  (calculated with average atomic masses)

 Point group  D2h 



 ATOMIC COORDINATES

 NR  ATOM    CHARGE       X              Y              Z

   1  AL      3.00    0.000000000    0.000000000    0.000000000

 NUCLEAR CHARGE:                    3
 NUMBER OF PRIMITIVE AOS:          84
 NUMBER OF SYMMETRY AOS:           75
 NUMBER OF CONTRACTIONS:           75   (  22Ag  +  14B3u +  14B2u +   3B1g +  14B1u +   3B2g +   3B3g +   2Au  )
 NUMBER OF CORE ORBITALS:           0   (   0Ag  +   0B3u +   0B2u +   0B1g +   0B1u +   0B2g +   0B3g +   0Au  )
 NUMBER OF VALENCE ORBITALS:        4   (   1Ag  +   1B3u +   1B2u +   0B1g +   1B1u +   0B2g +   0B3g +   0Au  )


 NUCLEAR REPULSION ENERGY    0.00000000

 EXTRA SYMMETRY OF AOS IN SYMMETRY 1:   1 1 1 1 1 1 1 1 1 1   1 1 1 1 1 1 2 3 2 3   2 3
 EXTRA SYMMETRY OF AOS IN SYMMETRY 2:   1 1 1 1 1 1 1 1 1 1   2 3 2 3
 EXTRA SYMMETRY OF AOS IN SYMMETRY 3:   1 1 1 1 1 1 1 1 1 1   2 3 2 3
 EXTRA SYMMETRY OF AOS IN SYMMETRY 5:   1 1 1 1 1 1 1 1 1 1   2 3 2 3

 Eigenvalues of metric

         1 0.245E-02 0.499E-02 0.997E-02 0.222E-01 0.467E-01 0.748E-01 0.127E+00 0.217E+00
         2 0.216E-01 0.751E-01 0.159E+00 0.265E+00 0.445E+00 0.445E+00 0.499E+00 0.769E+00
         3 0.216E-01 0.751E-01 0.159E+00 0.265E+00 0.445E+00 0.445E+00 0.499E+00 0.769E+00
         4 0.235E+00 0.842E+00 0.192E+01
         5 0.216E-01 0.751E-01 0.159E+00 0.265E+00 0.445E+00 0.445E+00 0.499E+00 0.769E+00
         6 0.235E+00 0.842E+00 0.192E+01
         7 0.235E+00 0.842E+00 0.192E+01
         8 0.445E+00 0.156E+01


 Contracted 2-electron integrals neglected if value below      1.0D-12
 AO integral compression algorithm  1   Integral accuracy      1.0D-12

     5.243 MB (compressed) written to integral file ( 55.3%)


 NUMBER OF SORTED TWO-ELECTRON INTEGRALS:     592921.     BUFFER LENGTH:  32768
 NUMBER OF SEGMENTS:   1  SEGMENT LENGTH:     592921      RECORD LENGTH: 524288

 Memory used in sort:       1.15 MW

 SORT1 READ     1164973. AND WROTE      426776. INTEGRALS IN      2 RECORDS. CPU TIME:     0.02 SEC, REAL TIME:     0.03 SEC
 SORT2 READ      426776. AND WROTE      592921. INTEGRALS IN     20 RECORDS. CPU TIME:     0.04 SEC, REAL TIME:     0.05 SEC

 FILE SIZES:   FILE 1:    12.9 MBYTE,  FILE 4:     8.4 MBYTE,   TOTAL:     21.3 MBYTE

 OPERATOR DM      FOR CENTER  0  COORDINATES:    0.000000    0.000000    0.000000


 **********************************************************************************************************************************
 DATASETS  * FILE   NREC   LENGTH (MB)   RECORD NAMES
              1      20        9.81       500      610      700      900      950      970     1000      129      960     1100   
                                          VAR    BASINP    GEOM    SYMINP    ZMAT    AOBASIS   BASIS     P2S    ABASIS      S 
                                         1400     1410     1420     1200     1210     1080     1600     1650     1300     1700   
                                           T        V       ECP      H0       H01     AOSYM     SMH    MOLCAS    ERIS     OPER   

 PROGRAMS   *        TOTAL       INT
 CPU TIMES  *         0.76      0.59
 REAL TIME  *         1.43 SEC
 DISK USED  *        22.66 MB      
 **********************************************************************************************************************************

1PROGRAM * RHF-SCF (OPEN SHELL)       Authors: W. Meyer, H.-J. Werner


 NUMBER OF ELECTRONS:       2+    1-    SPACE SYMMETRY=2    SPIN SYMMETRY: Doublet 
 CONVERGENCE THRESHOLDS:    1.00E-05 (Density)    1.00E-07 (Energy)
 MAX. NUMBER OF ITERATIONS:       60
 INTERPOLATION TYPE:            DIIS
 INTERPOLATION STEPS:              2 (START)      1 (STEP)
 LEVEL SHIFTS:                 -0.30 (CLOSED)  0.00 (OPEN) 


 Singly occupied orbitals:      1.2
 Orbital guess generated from atomic densities. Full valence occupancy:    1   1   1   0   1   0   0   0


 Molecular orbital dump at record        4202.2

 ITERATION    DDIFF          GRAD             ENERGY        2-EL.EN.            DIPOLE MOMENTS         DIIS   ORB.
    1      0.000D+00      0.000D+00        -1.86605308      1.640859    0.00000    0.00000    0.00000    0    start
    2      0.000D+00      0.411D-02        -1.87302045      1.716131    0.00000    0.00000    0.00000    1    diag,B
    3      0.550D-02      0.147D-02        -1.87451178      1.748309    0.00000    0.00000    0.00000    2    diag,B
    4      0.293D-02      0.619D-03        -1.87469283      1.756797    0.00000    0.00000    0.00000    3    diag,B
    5      0.146D-02      0.145D-03        -1.87469660      1.756161    0.00000    0.00000    0.00000    4    diag,B
    6      0.569D-03      0.286D-04        -1.87469676      1.756274    0.00000    0.00000    0.00000    5    diag,B
    7      0.953D-04      0.883D-05        -1.87469678      1.756206    0.00000    0.00000    0.00000    6    fixocc
    8      0.187D-04      0.205D-05        -1.87469678      1.756211    0.00000    0.00000    0.00000    7    diag,B
    9      0.131D-04      0.150D-06        -1.87469678      1.756209    0.00000    0.00000    0.00000    8    diag,B
   10      0.365D-06      0.431D-07        -1.87469678      1.756209    0.00000    0.00000    0.00000    0    orth

 Final alpha occupancy:   1   1   0   0   0   0   0   0
 Final beta  occupancy:   1   0   0   0   0   0   0   0

 !RHF STATE 1.2 Energy                 -1.874696779671
 Nuclear energy                         0.00000000
 One-electron energy                   -2.75280147
 Two-electron energy                    0.87810469
 Virial quotient                       -3.00375195
 !RHF STATE 1.2 Dipole moment           0.00000000     0.00000000     0.00000000
 Dipole moment /Debye                   0.00000000     0.00000000     0.00000000

 Orbital energies:

         1.1          2.1          3.1
     -0.393491     0.044657     0.103751

         1.2          2.2          3.2
     -0.209611     0.047326     0.331929

         1.3          2.3
      0.007151     0.060955

         1.4          2.4
      0.103815     0.326372

         1.5          2.5
      0.007151     0.060955

         1.6          2.6
      0.103815     0.326372

         1.7          2.7
      0.104319     0.335181

         1.8          2.8
      0.344782     1.058490

 HOMO      1.2    -0.209611 =      -5.7038eV
 LUMO      1.3     0.007151 =       0.1946eV
 LUMO-HOMO         0.216762 =       5.8984eV


 **********************************************************************************************************************************
 DATASETS  * FILE   NREC   LENGTH (MB)   RECORD NAMES
              1      20        9.81       500      610      700      900      950      970     1000      129      960     1100   
                                          VAR    BASINP    GEOM    SYMINP    ZMAT    AOBASIS   BASIS     P2S    ABASIS      S 
                                         1400     1410     1420     1200     1210     1080     1600     1650     1300     1700   
                                           T        V       ECP      H0       H01     AOSYM     SMH    MOLCAS    ERIS     OPER   

              2       5        3.82       200      700     1000      520     4202   
                                        OPTIONS   GEOM     BASIS   MCVARS     RHF  

 PROGRAMS   *        TOTAL       RHF       INT
 CPU TIMES  *         0.88      0.12      0.59
 REAL TIME  *         1.73 SEC
 DISK USED  *        22.66 MB      
 **********************************************************************************************************************************

1PROGRAM * MULTI (Direct Multiconfiguration SCF)       Authors: P.J. Knowles, H.-J. Werner (1984)     S.T. Elbert (1988)


 Number of closed-shell orbitals:   1 (   1   0   0   0   0   0   0   0 )
 Number of active  orbitals:        3 (   0   1   1   0   1   0   0   0 )
 Number of external orbitals:      71 (  21  13  13   3  13   3   3   2 )

 State symmetry 1

 Number of electrons:     1    Spin symmetry=Doublet   Space symmetry=2
 Number of states:        1
 Number of CSFs:          1   (1 determinants, 3 intermediate states)

 State symmetry 2

 Number of electrons:     1    Spin symmetry=Doublet   Space symmetry=3
 Number of states:        1
 Number of CSFs:          1   (1 determinants, 3 intermediate states)

 State symmetry 3

 Number of electrons:     1    Spin symmetry=Doublet   Space symmetry=5
 Number of states:        1
 Number of CSFs:          1   (1 determinants, 3 intermediate states)

 Molecular orbitals read from record     4202.2  Type=RHF/CANONICAL (state 1.2)
 *** IN SYMMETRY 1 ORBITAL  1 SYMMETRY CONTAMINATION OF 0.123D-01 HAS BEEN REMOVED

 EXTRA SYMMETRY OF MOS IN SYMMETRY 1:   1 1 3 2 1 3 2 2 3 1   1 1 1 1 1 1 1 1 1 1   1 1
 *** IN SYMMETRY 2 ORBITAL  1 SYMMETRY CONTAMINATION OF 0.380D-03 HAS BEEN REMOVED
 EXTRA SYMMETRY OF MOS IN SYMMETRY 2:   1 1 1 2 3 2 3 1 1 1   1 1 1 1
 *** IN SYMMETRY 3 ORBITAL  1 SYMMETRY CONTAMINATION OF 0.469D-02 HAS BEEN REMOVED
 EXTRA SYMMETRY OF MOS IN SYMMETRY 3:   1 1 2 1 3 2 3 1 1 1   1 1 1 1
 *** IN SYMMETRY 5 ORBITAL  1 SYMMETRY CONTAMINATION OF 0.539D-02 HAS BEEN REMOVED
 EXTRA SYMMETRY OF MOS IN SYMMETRY 5:   1 1 2 1 3 2 3 1 1 1   1 1 1 1

 Wavefunction dump at record             5202.2

 Convergence thresholds  0.10E-01 (gradient)  0.10E-05 (energy)  0.10E-02 (step length)

 Weight factors for state symmetry  1:    0.33333
 Weight factors for state symmetry  2:    0.33333
 Weight factors for state symmetry  3:    0.33333

 Number of orbital rotations:       60   (     0 Core/Active     21 Core/Virtual   0 Active/Active     39 Active/Virtual)
 Total number of variables:         63


 ITER. MIC  NCI  NEG     ENERGY(VAR)     ENERGY(PROJ)   ENERGY CHANGE     GRAD(0)  GRAD(ORB)   GRAD(CI)     STEP       TIME

   1   37   12    0      -1.84906599      -1.87464865   -0.02558265    0.04243128 0.00000000 0.00000000  0.72D+00      0.04
   2   15   12    0      -1.87458477      -1.87461758   -0.00003281    0.00604428 0.00000000 0.00000000  0.66D-02      0.07
   3   15   12    0      -1.87461760      -1.87461760   -0.00000000    0.00000836 0.00000000 0.00000000  0.19D-04      0.09

 ** WVFN ****  CONVERGENCE REACHED, FINAL GRADIENT:  0.29D-10



 Results for state 1.2
 =====================

 !MCSCF STATE 1.2 Energy               -1.874617598475
 Nuclear energy                         0.00000000
 Kinetic energy                         0.62409340
 One electron energy                   -2.75290805
 Two electron energy                    0.87829046
 Virial ratio                           4.00374525

 !MCSCF STATE 1.2 Dipole moment         0.00000000     0.00000000     0.00000000
 Dipole moment /Debye                   0.00000000     0.00000000     0.00000000



 Results for state 1.3
 =====================

 !MCSCF STATE 1.3 Energy               -1.874617598475
 Nuclear energy                         0.00000000
 Kinetic energy                         0.62409340
 One electron energy                   -2.75290805
 Two electron energy                    0.87829046
 Virial ratio                           4.00374525

 !MCSCF STATE 1.3 Dipole moment         0.00000000     0.00000000     0.00000000
 Dipole moment /Debye                   0.00000000     0.00000000     0.00000000



 Results for state 1.5
 =====================

 !MCSCF STATE 1.5 Energy               -1.874617598475
 Nuclear energy                         0.00000000
 Kinetic energy                         0.62409340
 One electron energy                   -2.75290805
 Two electron energy                    0.87829046
 Virial ratio                           4.00374525

 !MCSCF STATE 1.5 Dipole moment         0.00000000     0.00000000     0.00000000
 Dipole moment /Debye                   0.00000000     0.00000000     0.00000000

 State-averaged charge density matrix saved on record  5202.2 (density set 1)


 NATURAL ORBITALS (state averaged)
 =================================

   Orb     Occ        Energy       Coefficients

                                   1 1s      1 1s      1 1s      1 1s      1 1s      1 1s      1 1s      1 1s      1 1s      1 1s   
                                   1 1s      1 1s      1 1s      1 1s      1 1s      1 1s      1 3d0     1 3d2+    1 3d0     1 3d2+ 
                                   1 3d0     1 3d2+ 

   1.1  2.00000    -0.393432     0.000000 -0.000000  0.000000 -0.000002  0.000009 -0.000035  0.000120 -0.000363  0.001073 -0.005137
                                 0.039097 -0.259667  0.661381  0.098967  0.383831  0.006000  0.000000  0.000000  0.000000  0.000000
                                 0.000000  0.000000

                                   1 2px     1 2px     1 2px     1 2px     1 2px     1 2px     1 2px     1 2px     1 2px     1 2px  
                                   1 4f1+    1 4f3+    1 4f1+    1 4f3+ 

   1.2  0.33333     0.000401     0.000014 -0.000118  0.000634 -0.002591  0.008535 -0.028851  0.510324  0.003945  0.575688  0.038054
                                 0.000000  0.000000  0.000000  0.000000

                                   1 2py     1 2py     1 2py     1 2py     1 2py     1 2py     1 2py     1 2py     1 2py     1 2py  
                                   1 4f1-    1 4f3-    1 4f1-    1 4f3- 

   1.3  0.33333     0.000401     0.000014 -0.000118  0.000634 -0.002591  0.008535 -0.028851  0.510324  0.003945  0.575688  0.038054
                                 0.000000  0.000000  0.000000  0.000000

                                   1 2pz     1 2pz     1 2pz     1 2pz     1 2pz     1 2pz     1 2pz     1 2pz     1 2pz     1 2pz  
                                   1 4f0     1 4f2+    1 4f0     1 4f2+ 

   1.5  0.33333     0.000401     0.000014 -0.000118  0.000634 -0.002591  0.008535 -0.028851  0.510324  0.003945  0.575688  0.038054
                                 0.000000  0.000000  0.000000  0.000000
 

 EXTRA SYMMETRY OF MOS IN SYMMETRY 1:   1 1 3 2 1 2 3 2 3 1   1 1 1 1 1 1 1 1 1 1   1 1
 EXTRA SYMMETRY OF MOS IN SYMMETRY 2:   1 1 2 3 1 3 2 1 1 1   1 1 1 1
 EXTRA SYMMETRY OF MOS IN SYMMETRY 3:   1 1 3 2 1 3 2 1 1 1   1 1 1 1
 EXTRA SYMMETRY OF MOS IN SYMMETRY 5:   1 1 2 3 1 2 3 1 1 1   1 1 1 1

 Natural orbital dump (state averaged) at molpro section  5202.2    (Orbital set 2)


 CI vector for state symmetry 1
 ==============================

 a 0 0           1.0000000

 TOTAL ENERGIES                        -1.87461760

 CI vector for state symmetry 2
 ==============================

 0 a 0           1.0000000

 TOTAL ENERGIES                        -1.87461760

 CI vector for state symmetry 3
 ==============================

 0 0 a           1.0000000

 TOTAL ENERGIES                        -1.87461760



 **********************************************************************************************************************************
 DATASETS  * FILE   NREC   LENGTH (MB)   RECORD NAMES
              1      21        9.94       500      610      700      900      950      970     1000      129      960     1100   
                                          VAR    BASINP    GEOM    SYMINP    ZMAT    AOBASIS   BASIS     P2S    ABASIS      S 
                                         1400     1410     1420     1200     1210     1080     1600     1650     1300     1700   
                                           T        V       ECP      H0       H01     AOSYM     SMH    MOLCAS    ERIS     OPER   
                                         1380   
                                         JKOP   

              2       6        6.34       200      700     1000      520     4202     5202   
                                        OPTIONS   GEOM     BASIS   MCVARS     RHF     MCSCF   

 PROGRAMS   *        TOTAL     MULTI       RHF       INT
 CPU TIMES  *         1.00      0.12      0.12      0.59
 REAL TIME  *         2.26 SEC
 DISK USED  *        25.85 MB      
 **********************************************************************************************************************************

1PROGRAM * RHF-SCF (OPEN SHELL)       Authors: W. Meyer, H.-J. Werner


 NUMBER OF ELECTRONS:       2+    1-    SPACE SYMMETRY=2    SPIN SYMMETRY: Doublet 
 CONVERGENCE THRESHOLDS:    1.00E-05 (Density)    1.00E-07 (Energy)
 MAX. NUMBER OF ITERATIONS:        0
 INTERPOLATION TYPE:            DIIS
 INTERPOLATION STEPS:              2 (START)      1 (STEP)
 LEVEL SHIFTS:                 -0.30 (CLOSED)  0.00 (OPEN) 


 Singly occupied orbitals:      1.2
 Molecular orbitals read from record     5202.2  Type=MCSCF/NATURAL  

 Molecular orbital dump at record        2101.2

 ITERATION    DDIFF          GRAD             ENERGY        2-EL.EN.            DIPOLE MOMENTS         DIIS   ORB.
    1      0.000D+00      0.000D+00        -1.87461760      1.756581    0.00000    0.00000    0.00000    0    start

 Final alpha occupancy:   1   1   0   0   0   0   0   0
 Final beta  occupancy:   1   0   0   0   0   0   0   0

 !RHF STATE 1.2 Energy                 -1.874617598475
 Nuclear energy                         0.00000000
 One-electron energy                   -2.75290805
 Two-electron energy                    0.87829046
 Virial quotient                       -3.00374525
 !RHF STATE 1.2 Dipole moment           0.00000000     0.00000000     0.00000000
 Dipole moment /Debye                   0.00000000     0.00000000     0.00000000

 Orbital energies:

         1.1          2.1          3.1
     -0.393432     0.047196     0.107867

         1.2          2.2          3.2
      0.000401     0.048917     0.348941

         1.3          2.3
      0.000401     0.048917

         1.4          2.4
      0.107867     0.342064

         1.5          2.5
      0.000401     0.048917

         1.6          2.6
      0.107867     0.342064

         1.7          2.7
      0.107867     0.342064

         1.8          2.8
      0.348941     1.066324

 HOMO      1.2     0.000401 =       0.0109eV
 LUMO      1.3     0.000401 =       0.0109eV
 LUMO-HOMO         0.000000 =       0.0000eV


 **********************************************************************************************************************************
 DATASETS  * FILE   NREC   LENGTH (MB)   RECORD NAMES
              1      21        9.94       500      610      700      900      950      970     1000      129      960     1100   
                                          VAR    BASINP    GEOM    SYMINP    ZMAT    AOBASIS   BASIS     P2S    ABASIS      S 
                                         1400     1410     1420     1200     1210     1080     1600     1650     1300     1700   
                                           T        V       ECP      H0       H01     AOSYM     SMH    MOLCAS    ERIS     OPER   
                                         1380   
                                         JKOP   

              2       7        8.89       200      700     1000      520     4202     5202     2101   
                                        OPTIONS   GEOM     BASIS   MCVARS     RHF     MCSCF     RHF  

 PROGRAMS   *        TOTAL       RHF     MULTI       RHF       INT
 CPU TIMES  *         1.03      0.03      0.12      0.12      0.59
 REAL TIME  *         2.35 SEC
 DISK USED  *        25.85 MB      
 **********************************************************************************************************************************
 SETTING SCF(1)         =        -1.87461760  AU                              
 SETTING _CC_NORM_MAX   =         2.00000000                                  


1PROGRAM * CCSD (Unrestricted open-shell coupled cluster)     Authors: C. Hampel, H.-J. Werner, 1991, M. Deegan, P.J. Knowles, 1992


 Convergence thresholds:  THRVAR = 1.00D-08  THRDEN = 1.00D-06

 CCSD(T)     terms to be evaluated (factor= 1.000)


 Number of closed-shell orbitals:   1 (   1   0   0   0   0   0   0   0 )
 Number of active  orbitals:        1 (   0   1   0   0   0   0   0   0 )
 Number of external orbitals:      73 (  21  13  14   3  14   3   3   2 )

 Memory could be reduced to 0.79 Mwords without degradation in triples

 Number of N-1 electron functions:               3
 Number of N-2 electron functions:               3
 Number of singly external CSFs:                56
 Number of doubly external CSFs:              2345
 Total number of CSFs:                        2401

 Molecular orbitals read from record     2101.2  Type=RHF/CANONICAL (state 1.2)

 Integral transformation finished. Total CPU:   0.02 sec, npass=  1  Memory used:   0.11 MW

 Starting RMP2 calculation

 ITER.      SQ.NORM     CORR.ENERGY   TOTAL ENERGY   ENERGY CHANGE        DEN1      VAR(S)    VAR(P)  DIIS     TIME
   1      1.03527032    -0.04148414    -1.91610174    -0.04148414    -0.00060451  0.69D-04  0.46D-03  1  1     0.02
   2      1.03678588    -0.04219495    -1.91681255    -0.00071081    -0.00000328  0.33D-06  0.24D-05  2  2     0.02
   3      1.03685178    -0.04221287    -1.91683047    -0.00001792    -0.00000002  0.86D-09  0.11D-07  3  3     0.02
   4      1.03685245    -0.04221298    -1.91683058    -0.00000011    -0.00000000  0.53D-11  0.52D-10  4  4     0.02

 Norm of t1 vector:      0.05513806      S-energy:    -0.00218602      T1 diagnostic:  0.00382150
 Norm of t2 vector:      0.18388106      P-energy:    -0.04002696
                                         Alpha-Beta:  -0.03703370
                                         Alpha-Alpha: -0.00299326
                                         Beta-Beta:    0.00000000

 Spin contamination <S**2-Sz**2-Sz>     0.01131221
  Reference energy                     -1.874617598475
  RHF-RMP2 correlation energy          -0.042212982592
 !RHF-RMP2 energy                      -1.916830581068

 Starting UCCSD calculation

 ITER.      SQ.NORM     CORR.ENERGY   TOTAL ENERGY   ENERGY CHANGE        DEN1      VAR(S)    VAR(P)  DIIS     TIME
   1      1.05099910    -0.04861137    -1.92322896    -0.04861137    -0.00464947  0.38D-03  0.37D-02  1  1     0.04
   2      1.07129200    -0.05528905    -1.92990664    -0.00667768    -0.00033517  0.47D-04  0.21D-03  2  2     0.05
   3      1.07665178    -0.05631584    -1.93093344    -0.00102680    -0.00002729  0.43D-05  0.19D-04  3  3     0.06
   4      1.07854280    -0.05666493    -1.93128253    -0.00034908    -0.00000189  0.47D-06  0.12D-05  4  4     0.08
   5      1.07854604    -0.05663133    -1.93124893     0.00003360    -0.00000014  0.65D-07  0.79D-07  5  5     0.09
   6      1.07865008    -0.05665620    -1.93127380    -0.00002487    -0.00000001  0.93D-08  0.64D-08  6  6     0.10
   7      1.07863248    -0.05665044    -1.93126804     0.00000576    -0.00000000  0.17D-08  0.93D-09  6  1     0.11
   8      1.07863540    -0.05665081    -1.93126840    -0.00000036    -0.00000000  0.19D-09  0.88D-10  6  4     0.12

 Norm of t1 vector:      0.07215728      S-energy:    -0.00251137      T1 diagnostic:  0.01374949
                                                                       D1 diagnostic:  0.01759174
 Norm of t2 vector:      0.27097735      P-energy:    -0.05413944
                                         Alpha-Beta:  -0.05086737
                                         Alpha-Alpha: -0.00327207
                                         Beta-Beta:    0.00000000

 Doubles amplitudes (print threshold =  0.500E-01):

         I         J         SYM. A    SYM. B    A         B      T(IJ, AB) [Alpha-Beta]

         1         1         3         3         1         1     -0.11837945
         1         1         5         5         1         1     -0.11837940
         2         1         1         2         6         1     -0.06291895
         2         1         4         3         2         1     -0.06240475
         2         1         6         5         2         1     -0.06240477

 Spin contamination <S**2-Sz**2-Sz>     0.00184571

 Memory could be reduced to 0.82 Mwords without degradation in triples
 

 RESULTS
 =======

  Reference energy                     -1.874617598475
  UCCSD singles energy                 -0.002511368670
  UCCSD pair energy                    -0.054139437852
  UCCSD correlation energy             -0.056650806522
  Triples (T) contribution             -0.001469344539
  Total correlation energy             -0.058120151061
 
  RHF-UCCSD energy                     -1.931268404997
  RHF-UCCSD[T] energy                  -1.932658460521
  RHF-UCCSD-T energy                   -1.932754621045
 !RHF-UCCSD(T) energy                  -1.932737749536

 Program statistics:

 Available memory in ccsd:               511999848
 Min. memory needed in ccsd:                 36994
 Max. memory used in ccsd:                   38046
 Max. memory used in cckext:                 63714 ( 8 integral passes)
 Max. memory used in cckint:                111027 ( 1 integral passes)



 **********************************************************************************************************************************
 DATASETS  * FILE   NREC   LENGTH (MB)   RECORD NAMES
              1      21        9.94       500      610      700      900      950      970     1000      129      960     1100   
                                          VAR    BASINP    GEOM    SYMINP    ZMAT    AOBASIS   BASIS     P2S    ABASIS      S 
                                         1400     1410     1420     1200     1210     1080     1600     1650     1300     1700   
                                           T        V       ECP      H0       H01     AOSYM     SMH    MOLCAS    ERIS     OPER   
                                         1380   
                                         JKOP   

              2       7        8.89       200      700     1000      520     4202     5202     2101   
                                        OPTIONS   GEOM     BASIS   MCVARS     RHF     MCSCF     RHF  

 PROGRAMS   *        TOTAL  UCCSD(T)       RHF     MULTI       RHF       INT
 CPU TIMES  *         1.20      0.17      0.03      0.12      0.12      0.59
 REAL TIME  *         2.75 SEC
 DISK USED  *        25.85 MB      
 **********************************************************************************************************************************
 SETTING CCSD(1)        =        -1.93273775  AU                              

 DO I                   =         2.00000000   

 Running procedure=IP1

1PROGRAM * RHF-SCF (CLOSED SHELL)       Authors: W. Meyer, H.-J. Werner


 NUMBER OF ELECTRONS:       1+    1-    SPACE SYMMETRY=1    SPIN SYMMETRY: Singlet 
 CONVERGENCE THRESHOLDS:    1.00E-05 (Density)    1.00E-07 (Energy)
 MAX. NUMBER OF ITERATIONS:       60
 INTERPOLATION TYPE:            DIIS
 INTERPOLATION STEPS:              2 (START)      1 (STEP)
 LEVEL SHIFTS:                  0.00 (CLOSED)  0.00 (OPEN) 



 Orbital guess generated from atomic densities. Full valence occupancy:    1   1   1   0   1   0   0   0


 Molecular orbital dump at record        2102.2

 ITERATION    DDIFF          GRAD             ENERGY        2-EL.EN.            DIPOLE MOMENTS         DIIS   ORB.
    1      0.000D+00      0.000D+00        -1.66365445      0.692706    0.00000    0.00000    0.00000    0    start
    2      0.000D+00      0.108D-01        -1.67222294      0.731121    0.00000    0.00000    0.00000    1    diag
    3      0.134D-01      0.253D-02        -1.67276974      0.742576    0.00000    0.00000    0.00000    2    diag
    4      0.552D-02      0.126D-03        -1.67277089      0.742947    0.00000    0.00000    0.00000    3    diag
    5      0.480D-03      0.614D-05        -1.67277090      0.742923    0.00000    0.00000    0.00000    4    diag
    6      0.107D-04      0.485D-06        -1.67277090      0.742925    0.00000    0.00000    0.00000    5    diag
    7      0.638D-06      0.221D-07        -1.67277090      0.742925    0.00000    0.00000    0.00000    0    orth

 Final occupancy:   1   0   0   0   0   0   0   0

 !RHF STATE 1.1 Energy                 -1.672770896691
 Nuclear energy                         0.00000000
 One-electron energy                   -2.04423325
 Two-electron energy                    0.37146236
 Virial quotient                       -3.86204828
 !RHF STATE 1.1 Dipole moment           0.00000000     0.00000000     0.00000000
 Dipole moment /Debye                   0.00000000     0.00000000     0.00000000

 Orbital energies:

         1.1          2.1          3.1
     -0.650654    -0.093879    -0.043202

         1.2          2.2
     -0.195141    -0.063187

         1.3          2.3
     -0.195141    -0.063187

         1.4          2.4
     -0.043202     0.129364

         1.5          2.5
     -0.195141    -0.063187

         1.6          2.6
     -0.043202     0.129364

         1.7          2.7
     -0.043202     0.129364

         1.8          2.8
      0.159978     0.811740

 HOMO      1.1    -0.650654 =     -17.7052eV
 LUMO      1.2    -0.195141 =      -5.3101eV
 LUMO-HOMO         0.455513 =      12.3952eV


 **********************************************************************************************************************************
 DATASETS  * FILE   NREC   LENGTH (MB)   RECORD NAMES
              1      21        9.94       500      610      700      900      950      970     1000      129      960     1100   
                                          VAR    BASINP    GEOM    SYMINP    ZMAT    AOBASIS   BASIS     P2S    ABASIS      S 
                                         1400     1410     1420     1200     1210     1080     1600     1650     1300     1700   
                                           T        V       ECP      H0       H01     AOSYM     SMH    MOLCAS    ERIS     OPER   
                                         1380   
                                         JKOP   

              2       8       11.41       200      700     1000      520     4202     5202     2101     2102   
                                        OPTIONS   GEOM     BASIS   MCVARS     RHF     MCSCF     RHF      RHF  

 PROGRAMS   *        TOTAL       RHF  UCCSD(T)       RHF     MULTI       RHF       INT
 CPU TIMES  *         1.30      0.10      0.17      0.03      0.12      0.12      0.59
 REAL TIME  *         2.96 SEC
 DISK USED  *        25.85 MB      
 **********************************************************************************************************************************
 SETTING SCF(2)         =        -1.67277090  AU                              
 SETTING _CC_NORM_MAX   =         2.00000000                                  


1PROGRAM * CCSD (Unrestricted open-shell coupled cluster)     Authors: C. Hampel, H.-J. Werner, 1991, M. Deegan, P.J. Knowles, 1992


 Convergence thresholds:  THRVAR = 1.00D-08  THRDEN = 1.00D-06

 CCSD(T)     terms to be evaluated (factor= 1.000)


 Number of closed-shell orbitals:   1 (   1   0   0   0   0   0   0   0 )
 Number of external orbitals:      74 (  21  14  14   3  14   3   3   2 )

 Memory could be reduced to 0.74 Mwords without degradation in triples

 Number of N-1 electron functions:               2
 Number of N-2 electron functions:               1
 Number of singly external CSFs:                42
 Number of doubly external CSFs:              1125
 Total number of CSFs:                        1167

 Molecular orbitals read from record     2102.2  Type=RHF/CANONICAL (state 1.1)

 Integral transformation finished. Total CPU:   0.01 sec, npass=  1  Memory used:   0.10 MW

 Starting RMP2 calculation

 ITER.      SQ.NORM     CORR.ENERGY   TOTAL ENERGY   ENERGY CHANGE        DEN1      VAR(S)    VAR(P)  DIIS     TIME
   1      1.02345141    -0.02896238    -1.70173328    -0.02896238    -0.00053544  0.29D-16  0.43D-03  1  1     0.02
   2      1.02463900    -0.02959237    -1.70236327    -0.00062999    -0.00000070  0.18D-19  0.49D-06  2  2     0.02
   3      1.02466216    -0.02960021    -1.70237111    -0.00000784    -0.00000000  0.37D-22  0.76D-09  3  3     0.02
   4      1.02466237    -0.02960024    -1.70237113    -0.00000003    -0.00000000  0.44D-24  0.72D-12  4  4     0.02

 Norm of t1 vector:      0.00000004      S-energy:    -0.00000000      T1 diagnostic:  0.00000002
 Norm of t2 vector:      0.15704258      P-energy:    -0.02960024
                                         Alpha-Beta:  -0.02960024
                                         Alpha-Alpha:  0.00000000
                                         Beta-Beta:    0.00000000

 Spin contamination <S**2-Sz**2-Sz>     0.00000000
  Reference energy                     -1.672770896691
  RHF-RMP2 correlation energy          -0.029600235270
 !RHF-RMP2 energy                      -1.702371131961

 Starting UCCSD calculation

 ITER.      SQ.NORM     CORR.ENERGY   TOTAL ENERGY   ENERGY CHANGE        DEN1      VAR(S)    VAR(P)  DIIS     TIME
   1      1.03408391    -0.03361391    -1.70638481    -0.03361391    -0.00379434  0.68D-04  0.30D-02  1  1     0.03
   2      1.05422936    -0.04012350    -1.71289440    -0.00650959    -0.00028057  0.97D-05  0.16D-03  2  2     0.04
   3      1.05893529    -0.04110052    -1.71387141    -0.00097702    -0.00001130  0.24D-06  0.59D-05  3  3     0.05
   4      1.05991732    -0.04130515    -1.71407605    -0.00020463    -0.00000016  0.13D-07  0.74D-07  4  4     0.06
   5      1.05987491    -0.04128892    -1.71405982     0.00001623    -0.00000001  0.18D-08  0.26D-08  5  5     0.06
   6      1.05989643    -0.04129420    -1.71406509    -0.00000528    -0.00000000  0.74D-10  0.21D-09  6  6     0.07
   7      1.05989441    -0.04129348    -1.71406438     0.00000071    -0.00000000  0.32D-11  0.63D-11  6  1     0.08

 Norm of t1 vector:      0.01996469      S-energy:     0.00000000      T1 diagnostic:  0.00998235
                                                                       D1 diagnostic:  0.01411717
 Norm of t2 vector:      0.24391766      P-energy:    -0.04129348
                                         Alpha-Beta:  -0.04129348
                                         Alpha-Alpha:  0.00000000
                                         Beta-Beta:    0.00000000

 Doubles amplitudes (print threshold =  0.500E-01):

         I         J         SYM. A    SYM. B    A         B      T(IJ, AB) [Alpha-Beta]

         1         1         2         2         1         1     -0.11098748
         1         1         3         3         1         1     -0.11098748
         1         1         5         5         1         1     -0.11098748

 Spin contamination <S**2-Sz**2-Sz>     0.00000000

 Memory could be reduced to 0.74 Mwords without degradation in triples
 

 RESULTS
 =======

  Reference energy                     -1.672770896691
  UCCSD singles energy                  0.000000000340
  UCCSD pair energy                    -0.041293481871
  UCCSD correlation energy             -0.041293481532
  Triples (T) contribution              0.000000000000
  Total correlation energy             -0.041293481532
 
  RHF-UCCSD energy                     -1.714064378223
  RHF-UCCSD[T] energy                  -1.714064378223
  RHF-UCCSD-T energy                   -1.714064378223
 !RHF-UCCSD(T) energy                  -1.714064378223

 Program statistics:

 Available memory in ccsd:               511999882
 Min. memory needed in ccsd:                 32633
 Max. memory used in ccsd:                   32633
 Max. memory used in cckext:                 60102 ( 7 integral passes)
 Max. memory used in cckint:                102045 ( 1 integral passes)



 **********************************************************************************************************************************
 DATASETS  * FILE   NREC   LENGTH (MB)   RECORD NAMES
              1      21        9.94       500      610      700      900      950      970     1000      129      960     1100   
                                          VAR    BASINP    GEOM    SYMINP    ZMAT    AOBASIS   BASIS     P2S    ABASIS      S 
                                         1400     1410     1420     1200     1210     1080     1600     1650     1300     1700   
                                           T        V       ECP      H0       H01     AOSYM     SMH    MOLCAS    ERIS     OPER   
                                         1380   
                                         JKOP   

              2       8       11.41       200      700     1000      520     4202     5202     2101     2102   
                                        OPTIONS   GEOM     BASIS   MCVARS     RHF     MCSCF     RHF      RHF  

 PROGRAMS   *        TOTAL  UCCSD(T)       RHF  UCCSD(T)       RHF     MULTI       RHF       INT
 CPU TIMES  *         1.43      0.13      0.10      0.17      0.03      0.12      0.12      0.59
 REAL TIME  *         3.27 SEC
 DISK USED  *        25.85 MB      
 **********************************************************************************************************************************
 SETTING CCSD(2)        =        -1.71406438  AU                              

 DO I                   =         3.00000000   

 Running procedure=IP2

1PROGRAM * RHF-SCF (OPEN SHELL)       Authors: W. Meyer, H.-J. Werner


 NUMBER OF ELECTRONS:       1+    0-    SPACE SYMMETRY=1    SPIN SYMMETRY: Doublet 
 CONVERGENCE THRESHOLDS:    1.00E-05 (Density)    1.00E-07 (Energy)
 MAX. NUMBER OF ITERATIONS:       60
 INTERPOLATION TYPE:            DIIS
 INTERPOLATION STEPS:              2 (START)      1 (STEP)
 LEVEL SHIFTS:                 -0.30 (CLOSED)  0.00 (OPEN) 



 Orbital guess generated from atomic densities. Full valence occupancy:    1   1   1   0   1   0   0   0


 Molecular orbital dump at record        2103.2

 ITERATION    DDIFF          GRAD             ENERGY        2-EL.EN.            DIPOLE MOMENTS         DIIS   ORB.
    1      0.000D+00      0.000D+00        -1.00500379     -0.000000    0.00000    0.00000    0.00000    0    start
    2      0.000D+00      0.130D-01        -1.02799404     -0.000000    0.00000    0.00000    0.00000    1    diag,B
    3      0.127D-01      0.395D-02        -1.03016606      0.000000    0.00000    0.00000    0.00000    2    diag,B
    4      0.542D-02      0.119D-03        -1.03016724      0.000000    0.00000    0.00000    0.00000    3    diag,B
    5      0.331D-03      0.271D-05        -1.03016724      0.000000    0.00000    0.00000    0.00000    4    diag,B
    6      0.726D-05      0.280D-06        -1.03016724      0.000000    0.00000    0.00000    0.00000    0    orth

 Final alpha occupancy:   1   0   0   0   0   0   0   0
 Final beta  occupancy:   0   0   0   0   0   0   0   0

 !RHF STATE 1.1 Energy                 -1.030167243935
 Nuclear energy                         0.00000000
 One-electron energy                   -1.03016724
 Two-electron energy                    0.00000000
 Virial quotient                       -3.92149441
 !RHF STATE 1.1 Dipole moment           0.00000000     0.00000000     0.00000000
 Dipole moment /Debye                   0.00000000     0.00000000     0.00000000

 Orbital energies:

         1.1          2.1          3.1
     -1.030167    -0.268311    -0.242490

         1.2          2.2
     -0.506544    -0.200709

         1.3          2.3
     -0.506544    -0.200709

         1.4          2.4
     -0.242490    -0.099600

         1.5          2.5
     -0.506544    -0.200709

         1.6          2.6
     -0.242490    -0.099600

         1.7          2.7
     -0.242490    -0.099600

         1.8          2.8
     -0.045603     0.500190

 HOMO      1.1    -1.030167 =     -28.0323eV
 LUMO      1.2    -0.506544 =     -13.7838eV
 LUMO-HOMO         0.523623 =      14.2485eV


 **********************************************************************************************************************************
 DATASETS  * FILE   NREC   LENGTH (MB)   RECORD NAMES
              1      21        9.94       500      610      700      900      950      970     1000      129      960     1100   
                                          VAR    BASINP    GEOM    SYMINP    ZMAT    AOBASIS   BASIS     P2S    ABASIS      S 
                                         1400     1410     1420     1200     1210     1080     1600     1650     1300     1700   
                                           T        V       ECP      H0       H01     AOSYM     SMH    MOLCAS    ERIS     OPER   
                                         1380   
                                         JKOP   

              2       9       13.96       200      700     1000      520     4202     5202     2101     2102     2103   
                                        OPTIONS   GEOM     BASIS   MCVARS     RHF     MCSCF     RHF      RHF      RHF  

 PROGRAMS   *        TOTAL       RHF  UCCSD(T)       RHF  UCCSD(T)       RHF     MULTI       RHF       INT
 CPU TIMES  *         1.52      0.09      0.13      0.10      0.17      0.03      0.12      0.12      0.59
 REAL TIME  *         3.46 SEC
 DISK USED  *        25.85 MB      
 **********************************************************************************************************************************
 SETTING SCF(3)         =        -1.03016724  AU                              
 SETTING _CC_NORM_MAX   =         2.00000000                                  


1PROGRAM * CCSD (Unrestricted open-shell coupled cluster)     Authors: C. Hampel, H.-J. Werner, 1991, M. Deegan, P.J. Knowles, 1992


 Convergence thresholds:  THRVAR = 1.00D-08  THRDEN = 1.00D-06

 CCSD(T)     terms to be evaluated (factor= 1.000)


 Number of active  orbitals:        1 (   1   0   0   0   0   0   0   0 )
 Number of external orbitals:      74 (  21  14  14   3  14   3   3   2 )

 Memory could be reduced to 0.74 Mwords without degradation in triples

 Number of N-1 electron functions:               1
 Number of N-2 electron functions:               0
 Number of singly external CSFs:                22
 Number of doubly external CSFs:                 0
 Total number of CSFs:                          22

 Molecular orbitals read from record     2103.2  Type=RHF/CANONICAL (state 1.1)

 Integral transformation finished. Total CPU:   0.01 sec, npass=  1  Memory used:   0.10 MW

 Starting RMP2 calculation

 ITER.      SQ.NORM     CORR.ENERGY   TOTAL ENERGY   ENERGY CHANGE        DEN1      VAR(S)    VAR(P)  DIIS     TIME
   1      1.00000000    -0.00000000    -1.03016724    -0.00000000    -0.00000000  0.55D-15  0.00D+00  1  1     0.02

 Norm of t1 vector:      0.00000026      S-energy:    -0.00000000      T1 diagnostic:  0.00000018
 Norm of t2 vector:      0.00000000      P-energy:     0.00000000
                                         Alpha-Beta:   0.00000000
                                         Alpha-Alpha:  0.00000000
                                         Beta-Beta:    0.00000000

 Spin contamination <S**2-Sz**2-Sz>     0.00000000
  Reference energy                     -1.030167243935
  RHF-RMP2 correlation energy          -0.000000000000
 !RHF-RMP2 energy                      -1.030167243935

 Starting UCCSD calculation

 ITER.      SQ.NORM     CORR.ENERGY   TOTAL ENERGY   ENERGY CHANGE        DEN1      VAR(S)    VAR(P)  DIIS     TIME
   1      1.00000000    -0.00000000    -1.03016724    -0.00000000    -0.00000000  0.34D-14  0.00D+00  1  1     0.03

 Norm of t1 vector:      0.00000029      S-energy:    -0.00000000      T1 diagnostic:  0.00000021
                                                                       D1 diagnostic:  0.00000021
 Norm of t2 vector:      0.00000000      P-energy:     0.00000000
                                         Alpha-Beta:   0.00000000
                                         Alpha-Alpha:  0.00000000
                                         Beta-Beta:    0.00000000

 Spin contamination <S**2-Sz**2-Sz>     0.00000000

 Memory could be reduced to 0.76 Mwords without degradation in triples
 

 RESULTS
 =======

  Reference energy                     -1.030167243935
  UCCSD singles energy                 -0.000000000000
  UCCSD pair energy                     0.000000000000
  UCCSD correlation energy             -0.000000000000
  Triples (T) contribution              0.000000000000
  Total correlation energy             -0.000000000000
 
  RHF-UCCSD energy                     -1.030167243935
  RHF-UCCSD[T] energy                  -1.030167243935
  RHF-UCCSD-T energy                   -1.030167243935
 !RHF-UCCSD(T) energy                  -1.030167243935

 Program statistics:

 Available memory in ccsd:               511999882
 Min. memory needed in ccsd:                 31059
 Max. memory used in ccsd:                   31059
 Max. memory used in cckext:                 57814 ( 1 integral passes)
 Max. memory used in cckint:                102475 ( 1 integral passes)



 **********************************************************************************************************************************
 DATASETS  * FILE   NREC   LENGTH (MB)   RECORD NAMES
              1      21        9.94       500      610      700      900      950      970     1000      129      960     1100   
                                          VAR    BASINP    GEOM    SYMINP    ZMAT    AOBASIS   BASIS     P2S    ABASIS      S 
                                         1400     1410     1420     1200     1210     1080     1600     1650     1300     1700   
                                           T        V       ECP      H0       H01     AOSYM     SMH    MOLCAS    ERIS     OPER   
                                         1380   
                                         JKOP   

              2       9       13.96       200      700     1000      520     4202     5202     2101     2102     2103   
                                        OPTIONS   GEOM     BASIS   MCVARS     RHF     MCSCF     RHF      RHF      RHF  

 PROGRAMS   *        TOTAL  UCCSD(T)       RHF  UCCSD(T)       RHF  UCCSD(T)       RHF     MULTI       RHF       INT
 CPU TIMES  *         1.60      0.07      0.09      0.13      0.10      0.17      0.03      0.12      0.12      0.59
 REAL TIME  *         3.66 SEC
 DISK USED  *        25.85 MB      
 **********************************************************************************************************************************
 SETTING CCSD(3)        =        -1.03016724  AU                              

 DO I                   =         4.00000000   

 Running procedure=EA

1PROGRAM * RHF-SCF (OPEN SHELL)       Authors: W. Meyer, H.-J. Werner


 NUMBER OF ELECTRONS:       3+    1-    SPACE SYMMETRY=4    SPIN SYMMETRY: Triplet 
 CONVERGENCE THRESHOLDS:    1.00E-05 (Density)    1.00E-07 (Energy)
 MAX. NUMBER OF ITERATIONS:       60
 INTERPOLATION TYPE:            DIIS
 INTERPOLATION STEPS:              2 (START)      1 (STEP)
 LEVEL SHIFTS:                 -0.30 (CLOSED)  0.00 (OPEN) 


 Singly occupied orbitals:      1.2       1.3
 Orbital guess generated from atomic densities. Full valence occupancy:    1   1   1   0   1   0   0   0


 Molecular orbital dump at record        4202.2

 ITERATION    DDIFF          GRAD             ENERGY        2-EL.EN.            DIPOLE MOMENTS         DIIS   ORB.
    1      0.000D+00      0.000D+00        -1.87274895      2.980418    0.00000    0.00000    0.00000    0    start
    2      0.000D+00      0.379D-02        -1.87600661      2.877156    0.00000    0.00000    0.00000    1    diag,B
    3      0.571D-02      0.149D-02        -1.87657466      2.838844    0.00000    0.00000    0.00000    2    diag,B
    4      0.323D-02      0.576D-03        -1.87669348      2.836327    0.00000    0.00000    0.00000    3    diag,B
    5      0.180D-02      0.170D-03        -1.87670917      2.839064    0.00000    0.00000    0.00000    4    diag,B
    6      0.936D-03      0.352D-04        -1.87671015      2.840507    0.00000    0.00000    0.00000    5    diag,B
    7      0.145D-03      0.168D-04        -1.87671032      2.841051    0.00000    0.00000    0.00000    6    fixocc
    8      0.942D-04      0.287D-05        -1.87671033      2.841196    0.00000    0.00000    0.00000    7    diag,B
    9      0.151D-04      0.646D-06        -1.87671033      2.841163    0.00000    0.00000    0.00000    8    diag,B
   10      0.318D-05      0.196D-06        -1.87671033      2.841163    0.00000    0.00000    0.00000    0    orth

 Final alpha occupancy:   1   1   1   0   0   0   0   0
 Final beta  occupancy:   1   0   0   0   0   0   0   0

 !RHF STATE 1.4 Energy                 -1.876710327072
 Nuclear energy                         0.00000000
 One-electron energy                   -3.29729204
 Two-electron energy                    1.42058171
 Virial quotient                       -2.77502461
 !RHF STATE 1.4 Dipole moment           0.00000000     0.00000000     0.00000000
 Dipole moment /Debye                   0.00000000     0.00000000     0.00000000

 Orbital energies:

         1.1          2.1          3.1
     -0.207947     0.157407     0.223908

         1.2          2.2          3.2
     -0.020118     0.156553     0.495162

         1.3          2.3          3.3
     -0.020118     0.156553     0.495162

         1.4          2.4
      0.223908     0.489603

         1.5          2.5
      0.126639     0.203035

         1.6          2.6
      0.226974     0.494642

         1.7          2.7
      0.226974     0.494642

         1.8          2.8
      0.498931     1.243372

 HOMO      1.2    -0.020118 =      -0.5474eV
 LUMO      1.5     0.126639 =       3.4460eV
 LUMO-HOMO         0.146756 =       3.9934eV


 **********************************************************************************************************************************
 DATASETS  * FILE   NREC   LENGTH (MB)   RECORD NAMES
              1      21        9.94       500      610      700      900      950      970     1000      129      960     1100   
                                          VAR    BASINP    GEOM    SYMINP    ZMAT    AOBASIS   BASIS     P2S    ABASIS      S 
                                         1400     1410     1420     1200     1210     1080     1600     1650     1300     1700   
                                           T        V       ECP      H0       H01     AOSYM     SMH    MOLCAS    ERIS     OPER   
                                         1380   
                                         JKOP   

              2       9       13.96       200      700     1000      520     4202     5202     2101     2102     2103   
                                        OPTIONS   GEOM     BASIS   MCVARS     RHF     MCSCF     RHF      RHF      RHF  

 PROGRAMS   *        TOTAL       RHF  UCCSD(T)       RHF  UCCSD(T)       RHF  UCCSD(T)       RHF     MULTI       RHF       INT
 CPU TIMES  *         1.71      0.11      0.07      0.09      0.13      0.10      0.17      0.03      0.12      0.12      0.59
 REAL TIME  *         3.90 SEC
 DISK USED  *        25.85 MB      
 **********************************************************************************************************************************

1PROGRAM * MULTI (Direct Multiconfiguration SCF)       Authors: P.J. Knowles, H.-J. Werner (1984)     S.T. Elbert (1988)


 Number of closed-shell orbitals:   1 (   1   0   0   0   0   0   0   0 )
 Number of active  orbitals:        3 (   0   1   1   0   1   0   0   0 )
 Number of external orbitals:      71 (  21  13  13   3  13   3   3   2 )

 State symmetry 1

 Number of electrons:     2    Spin symmetry=Triplet   Space symmetry=4
 Number of states:        1
 Number of CSFs:          1   (1 determinants, 3 intermediate states)

 State symmetry 2

 Number of electrons:     2    Spin symmetry=Triplet   Space symmetry=6
 Number of states:        1
 Number of CSFs:          1   (1 determinants, 3 intermediate states)

 State symmetry 3

 Number of electrons:     2    Spin symmetry=Triplet   Space symmetry=7
 Number of states:        1
 Number of CSFs:          1   (1 determinants, 3 intermediate states)

 Molecular orbitals read from record     4202.2  Type=RHF/CANONICAL (state 1.4)
 *** IN SYMMETRY 1 ORBITAL  1 SYMMETRY CONTAMINATION OF 0.942D-02 HAS BEEN REMOVED

 EXTRA SYMMETRY OF MOS IN SYMMETRY 1:   1 1 3 2 1 3 2 2 3 1   1 1 1 1 1 1 1 1 1 1   1 1
 *** IN SYMMETRY 2 ORBITAL  1 SYMMETRY CONTAMINATION OF 0.176D-03 HAS BEEN REMOVED
 EXTRA SYMMETRY OF MOS IN SYMMETRY 2:   1 1 2 3 1 2 3 1 1 1   1 1 1 1
 *** IN SYMMETRY 3 ORBITAL  1 SYMMETRY CONTAMINATION OF 0.176D-03 HAS BEEN REMOVED
 EXTRA SYMMETRY OF MOS IN SYMMETRY 3:   1 1 2 3 1 2 3 1 1 1   1 1 1 1
 *** IN SYMMETRY 5 ORBITAL  1 SYMMETRY CONTAMINATION OF 0.161D-02 HAS BEEN REMOVED
 EXTRA SYMMETRY OF MOS IN SYMMETRY 5:   1 1 2 3 1 2 3 1 1 1   1 1 1 1

 Wavefunction dump at record             5202.2

 Convergence thresholds  0.10E-01 (gradient)  0.10E-05 (energy)  0.10E-02 (step length)

 Weight factors for state symmetry  1:    0.33333
 Weight factors for state symmetry  2:    0.33333
 Weight factors for state symmetry  3:    0.33333

 Number of orbital rotations:       60   (     0 Core/Active     21 Core/Virtual   0 Active/Active     39 Active/Virtual)
 Total number of variables:         63


 ITER. MIC  NCI  NEG     ENERGY(VAR)     ENERGY(PROJ)   ENERGY CHANGE     GRAD(0)  GRAD(ORB)   GRAD(CI)     STEP       TIME

   1   37   12    0      -1.85488484      -1.87771639   -0.02283154    0.04913033 0.00000000 0.00000000  0.69D+00      0.04
   2   17   12    0      -1.87569438      -1.87660670   -0.00091231    0.02076766 0.00000001 0.00000000  0.99D-01      0.06
   3   17   12    0      -1.87662322      -1.87662401   -0.00000079    0.00054916 0.00000000 0.00000000  0.32D-02      0.08
   4   17   12    0      -1.87662401      -1.87662401   -0.00000000    0.00000048 0.00000000 0.00000000  0.29D-05      0.10

 ** WVFN ****  CONVERGENCE REACHED, FINAL GRADIENT:  0.36D-12



 Results for state 1.4
 =====================

 !MCSCF STATE 1.4 Energy               -1.876624013268
 Nuclear energy                         0.00000000
 Kinetic energy                         0.67620243
 One electron energy                   -3.29734255
 Two electron energy                    1.42071853
 Virial ratio                           3.77523996

 !MCSCF STATE 1.4 Dipole moment         0.00000000     0.00000000     0.00000000
 Dipole moment /Debye                   0.00000000     0.00000000     0.00000000



 Results for state 1.6
 =====================

 !MCSCF STATE 1.6 Energy               -1.876624013268
 Nuclear energy                         0.00000000
 Kinetic energy                         0.67620243
 One electron energy                   -3.29734255
 Two electron energy                    1.42071853
 Virial ratio                           3.77523996

 !MCSCF STATE 1.6 Dipole moment         0.00000000     0.00000000     0.00000000
 Dipole moment /Debye                   0.00000000     0.00000000     0.00000000



 Results for state 1.7
 =====================

 !MCSCF STATE 1.7 Energy               -1.876624013268
 Nuclear energy                         0.00000000
 Kinetic energy                         0.67620243
 One electron energy                   -3.29734255
 Two electron energy                    1.42071853
 Virial ratio                           3.77523996

 !MCSCF STATE 1.7 Dipole moment         0.00000000     0.00000000     0.00000000
 Dipole moment /Debye                   0.00000000     0.00000000     0.00000000

 State-averaged charge density matrix saved on record  5202.2 (density set 1)


 NATURAL ORBITALS (state averaged)
 =================================

   Orb     Occ        Energy       Coefficients

                                   1 1s      1 1s      1 1s      1 1s      1 1s      1 1s      1 1s      1 1s      1 1s      1 1s   
                                   1 1s      1 1s      1 1s      1 1s      1 1s      1 1s      1 3d0     1 3d2+    1 3d0     1 3d2+ 
                                   1 3d0     1 3d2+ 

   1.1  2.00000    -0.207918     0.000000 -0.000000  0.000000 -0.000002  0.000010 -0.000037  0.000126 -0.000379  0.001102 -0.005147
                                 0.037931 -0.247678  0.585343  0.098122  0.404555  0.074449  0.000000  0.000000  0.000000  0.000000
                                 0.000000  0.000000

                                   1 2px     1 2px     1 2px     1 2px     1 2px     1 2px     1 2px     1 2px     1 2px     1 2px  
                                   1 4f1+    1 4f3+    1 4f1+    1 4f3+ 

   1.2  0.66667     0.122732     0.000011 -0.000096  0.000513 -0.002092  0.006871 -0.022808  0.360373  0.003753  0.521354  0.330202
                                 0.000000  0.000000  0.000000  0.000000

                                   1 2py     1 2py     1 2py     1 2py     1 2py     1 2py     1 2py     1 2py     1 2py     1 2py  
                                   1 4f1-    1 4f3-    1 4f1-    1 4f3- 

   1.3  0.66667     0.122732     0.000011 -0.000096  0.000513 -0.002092  0.006871 -0.022808  0.360373  0.003753  0.521354  0.330202
                                 0.000000  0.000000  0.000000  0.000000

                                   1 2pz     1 2pz     1 2pz     1 2pz     1 2pz     1 2pz     1 2pz     1 2pz     1 2pz     1 2pz  
                                   1 4f0     1 4f2+    1 4f0     1 4f2+ 

   1.5  0.66667     0.122732     0.000011 -0.000096  0.000513 -0.002092  0.006871 -0.022808  0.360373  0.003753  0.521354  0.330202
                                 0.000000  0.000000  0.000000  0.000000

 Total charge:  -1.000000000000
 

 EXTRA SYMMETRY OF MOS IN SYMMETRY 1:   1 1 2 3 1 3 2 3 2 1   1 1 1 1 1 1 1 1 1 1   1 1
 EXTRA SYMMETRY OF MOS IN SYMMETRY 2:   1 1 3 2 1 3 2 1 1 1   1 1 1 1
 EXTRA SYMMETRY OF MOS IN SYMMETRY 3:   1 1 3 2 1 3 2 1 1 1   1 1 1 1

 Natural orbital dump (state averaged) at molpro section  5202.2    (Orbital set 2)


 CI vector for state symmetry 1
 ==============================

 a a 0           1.0000000

 TOTAL ENERGIES                        -1.87662401

 CI vector for state symmetry 2
 ==============================

 a 0 a           1.0000000

 TOTAL ENERGIES                        -1.87662401

 CI vector for state symmetry 3
 ==============================

 0 a a           1.0000000

 TOTAL ENERGIES                        -1.87662401



 **********************************************************************************************************************************
 DATASETS  * FILE   NREC   LENGTH (MB)   RECORD NAMES
              1      21        9.94       500      610      700      900      950      970     1000      129      960     1100   
                                          VAR    BASINP    GEOM    SYMINP    ZMAT    AOBASIS   BASIS     P2S    ABASIS      S 
                                         1400     1410     1420     1200     1210     1080     1600     1650     1300     1700   
                                           T        V       ECP      H0       H01     AOSYM     SMH    MOLCAS    ERIS     OPER   
                                         1380   
                                         JKOP   

              2       9       13.96       200      700     1000      520     4202     5202     2101     2102     2103   
                                        OPTIONS   GEOM     BASIS   MCVARS     RHF     MCSCF     RHF      RHF      RHF  

 PROGRAMS   *        TOTAL     MULTI       RHF  UCCSD(T)       RHF  UCCSD(T)       RHF  UCCSD(T)       RHF     MULTI       RHF
 CPU TIMES  *         1.84      0.12      0.11      0.07      0.09      0.13      0.10      0.17      0.03      0.12      0.12
 REAL TIME  *         4.71 SEC
 DISK USED  *        33.48 MB      
 **********************************************************************************************************************************

1PROGRAM * RHF-SCF (OPEN SHELL)       Authors: W. Meyer, H.-J. Werner


 NUMBER OF ELECTRONS:       3+    1-    SPACE SYMMETRY=4    SPIN SYMMETRY: Triplet 
 CONVERGENCE THRESHOLDS:    1.00E-05 (Density)    1.00E-07 (Energy)
 MAX. NUMBER OF ITERATIONS:        0
 INTERPOLATION TYPE:            DIIS
 INTERPOLATION STEPS:              2 (START)      1 (STEP)
 LEVEL SHIFTS:                 -0.30 (CLOSED)  0.00 (OPEN) 


 Singly occupied orbitals:      1.2       1.3
 Molecular orbitals read from record     5202.2  Type=MCSCF/NATURAL  

 Molecular orbital dump at record        2105.2

 ITERATION    DDIFF          GRAD             ENERGY        2-EL.EN.            DIPOLE MOMENTS         DIIS   ORB.
    1      0.000D+00      0.000D+00        -1.87662401      2.841437    0.00000    0.00000    0.00000    0    start

 Final alpha occupancy:   1   1   1   0   0   0   0   0
 Final beta  occupancy:   1   0   0   0   0   0   0   0

 !RHF STATE 1.4 Energy                 -1.876624013268
 Nuclear energy                         0.00000000
 One-electron energy                   -3.29734255
 Two-electron energy                    1.42071853
 Virial quotient                       -2.77523996
 !RHF STATE 1.4 Dipole moment           0.00000000     0.00000000     0.00000000
 Dipole moment /Debye                   0.00000000     0.00000000     0.00000000

 Orbital energies:

         1.1          2.1          3.1
     -0.207918     0.166671     0.236384

         1.2          2.2          3.2
      0.122732     0.169400     0.508210

         1.3          2.3          3.3
      0.122732     0.169400     0.508210

         1.4          2.4
      0.236384     0.513346

         1.5          2.5
      0.122732     0.169400

         1.6          2.6
      0.236384     0.513346

         1.7          2.7
      0.236384     0.513346

         1.8          2.8
      0.508210     1.254549

 HOMO      1.2     0.122732 =       3.3397eV
 LUMO      1.5     0.122732 =       3.3397eV
 LUMO-HOMO        -0.000000 =      -0.0000eV


 **********************************************************************************************************************************
 DATASETS  * FILE   NREC   LENGTH (MB)   RECORD NAMES
              1      21        9.94       500      610      700      900      950      970     1000      129      960     1100   
                                          VAR    BASINP    GEOM    SYMINP    ZMAT    AOBASIS   BASIS     P2S    ABASIS      S 
                                         1400     1410     1420     1200     1210     1080     1600     1650     1300     1700   
                                           T        V       ECP      H0       H01     AOSYM     SMH    MOLCAS    ERIS     OPER   
                                         1380   
                                         JKOP   

              2      10       16.50       200      700     1000      520     4202     5202     2101     2102     2103     2105   
                                        OPTIONS   GEOM     BASIS   MCVARS     RHF     MCSCF     RHF      RHF      RHF      RHF  

 PROGRAMS   *        TOTAL       RHF     MULTI       RHF  UCCSD(T)       RHF  UCCSD(T)       RHF  UCCSD(T)       RHF     MULTI
 CPU TIMES  *         1.87      0.02      0.12      0.11      0.07      0.09      0.13      0.10      0.17      0.03      0.12
 REAL TIME  *         4.84 SEC
 DISK USED  *        33.48 MB      
 **********************************************************************************************************************************
 SETTING SCF(4)         =        -1.87662401  AU                              
 SETTING _CC_NORM_MAX   =         2.00000000                                  


1PROGRAM * CCSD (Unrestricted open-shell coupled cluster)     Authors: C. Hampel, H.-J. Werner, 1991, M. Deegan, P.J. Knowles, 1992


 Convergence thresholds:  THRVAR = 1.00D-08  THRDEN = 1.00D-06

 CCSD(T)     terms to be evaluated (factor= 1.000)


 Number of closed-shell orbitals:   1 (   1   0   0   0   0   0   0   0 )
 Number of active  orbitals:        2 (   0   1   1   0   0   0   0   0 )
 Number of external orbitals:      72 (  21  13  13   3  14   3   3   2 )

 Memory could be reduced to 0.83 Mwords without degradation in triples

 Number of N-1 electron functions:               4
 Number of N-2 electron functions:               6
 Number of singly external CSFs:                70
 Number of doubly external CSFs:              3889
 Total number of CSFs:                        3959

 Molecular orbitals read from record     2105.2  Type=RHF/CANONICAL (state 1.4)

 Integral transformation finished. Total CPU:   0.02 sec, npass=  1  Memory used:   0.12 MW

 Starting RMP2 calculation

 ITER.      SQ.NORM     CORR.ENERGY   TOTAL ENERGY   ENERGY CHANGE        DEN1      VAR(S)    VAR(P)  DIIS     TIME
   1      1.05013967    -0.05270577    -1.92932978    -0.05270577    -0.00104898  0.67D-04  0.10D-02  1  1     0.03
   2      1.05341701    -0.05398448    -1.93060850    -0.00127872    -0.00001058  0.35D-06  0.13D-04  2  2     0.03
   3      1.05366068    -0.05402762    -1.93065164    -0.00004314    -0.00000013  0.40D-08  0.18D-06  3  3     0.03
   4      1.05367084    -0.05402828    -1.93065229    -0.00000066    -0.00000000  0.86D-10  0.20D-08  4  4     0.03

 Norm of t1 vector:      0.05049928      S-energy:    -0.00161670      T1 diagnostic:  0.00323316
 Norm of t2 vector:      0.22609879      P-energy:    -0.05241158
                                         Alpha-Beta:  -0.04220514
                                         Alpha-Alpha: -0.01020643
                                         Beta-Beta:    0.00000000

 Spin contamination <S**2-Sz**2-Sz>     0.00577529
  Reference energy                     -1.876624013268
  RHF-RMP2 correlation energy          -0.054028278619
 !RHF-RMP2 energy                      -1.930652291887

 Starting UCCSD calculation

 ITER.      SQ.NORM     CORR.ENERGY   TOTAL ENERGY   ENERGY CHANGE        DEN1      VAR(S)    VAR(P)  DIIS     TIME
   1      1.06787795    -0.06019161    -1.93681562    -0.06019161    -0.00530882  0.47D-03  0.47D-02  1  1     0.05
   2      1.09098528    -0.06734668    -1.94397070    -0.00715507    -0.00032081  0.73D-04  0.24D-03  2  2     0.07
   3      1.09642801    -0.06823992    -1.94486393    -0.00089324    -0.00002850  0.50D-05  0.24D-04  3  3     0.09
   4      1.09858093    -0.06857191    -1.94519593    -0.00033199    -0.00000279  0.58D-06  0.24D-05  4  4     0.10
   5      1.09868486    -0.06853535    -1.94515937     0.00003656    -0.00000026  0.47D-07  0.23D-06  5  5     0.12
   6      1.09885935    -0.06856869    -1.94519270    -0.00003333    -0.00000003  0.98D-08  0.22D-07  6  6     0.13
   7      1.09883533    -0.06856041    -1.94518442     0.00000828    -0.00000000  0.42D-08  0.38D-08  6  1     0.14
   8      1.09883871    -0.06856057    -1.94518458    -0.00000016    -0.00000000  0.20D-08  0.91D-09  6  2     0.16

 Norm of t1 vector:      0.07376239      S-energy:    -0.00186594      T1 diagnostic:  0.01579926
                                                                       D1 diagnostic:  0.01883515
 Norm of t2 vector:      0.30561056      P-energy:    -0.06669463
                                         Alpha-Beta:  -0.05471185
                                         Alpha-Alpha: -0.01198278
                                         Beta-Beta:    0.00000000

 Doubles amplitudes (print threshold =  0.500E-01):

         I         J         SYM. A    SYM. B    A         B      T(IJ, AB) [Alpha-Alpha]

         3         2         2         3         2         2      0.06557273
         3         2         3         2         2         2     -0.06557273
 
         I         J         SYM. A    SYM. B    A         B      T(IJ, AB) [Alpha-Beta]

         1         1         5         5         1         1     -0.09744611

 Spin contamination <S**2-Sz**2-Sz>     0.00570532

 Memory could be reduced to 0.90 Mwords without degradation in triples
 

 RESULTS
 =======

  Reference energy                     -1.876624013268
  UCCSD singles energy                 -0.001865938327
  UCCSD pair energy                    -0.066694628753
  UCCSD correlation energy             -0.068560567080
  Triples (T) contribution             -0.003340736885
  Total correlation energy             -0.071901303965
 
  RHF-UCCSD energy                     -1.945184580348
  RHF-UCCSD[T] energy                  -1.948477014315
  RHF-UCCSD-T energy                   -1.948547496575
 !RHF-UCCSD(T) energy                  -1.948525317233

 Program statistics:

 Available memory in ccsd:               511999798
 Min. memory needed in ccsd:                 42719
 Max. memory used in ccsd:                   45506
 Max. memory used in cckext:                 68690 ( 8 integral passes)
 Max. memory used in cckint:                121230 ( 1 integral passes)



 **********************************************************************************************************************************
 DATASETS  * FILE   NREC   LENGTH (MB)   RECORD NAMES
              1      21        9.94       500      610      700      900      950      970     1000      129      960     1100   
                                          VAR    BASINP    GEOM    SYMINP    ZMAT    AOBASIS   BASIS     P2S    ABASIS      S 
                                         1400     1410     1420     1200     1210     1080     1600     1650     1300     1700   
                                           T        V       ECP      H0       H01     AOSYM     SMH    MOLCAS    ERIS     OPER   
                                         1380   
                                         JKOP   

              2      10       16.50       200      700     1000      520     4202     5202     2101     2102     2103     2105   
                                        OPTIONS   GEOM     BASIS   MCVARS     RHF     MCSCF     RHF      RHF      RHF      RHF  

 PROGRAMS   *        TOTAL  UCCSD(T)       RHF     MULTI       RHF  UCCSD(T)       RHF  UCCSD(T)       RHF  UCCSD(T)       RHF
 CPU TIMES  *         2.08      0.21      0.02      0.12      0.11      0.07      0.09      0.13      0.10      0.17      0.03
 REAL TIME  *         5.29 SEC
 DISK USED  *        33.48 MB      
 **********************************************************************************************************************************
 SETTING CCSD(4)        =        -1.94852532  AU                              
 Output type csv         
                                                                                                                                                                                                                                                                

      SCF,CCSD
   -1.87461760,   -1.93273775
   -1.67277090,   -1.71406438
   -1.03016724,   -1.03016724
   -1.87662401,   -1.94852532
                                                  

        UCCSD(T)        RHF-SCF         MULTI           RHF-SCF         UCCSD(T)        RHF-SCF         UCCSD(T)        RHF-SCF 
     -1.94852532     -1.87662401     -1.87662401     -1.87671033     -1.03016724     -1.03016724     -1.71406438     -1.67277090
 **********************************************************************************************************************************
 Variable memory released
